# LAMMPS data file written by OVITO Basic 3.9.1

512 atoms
1 atom types

0.00000 40.10800  xlo xhi
0.00000 34.80500  ylo yhi
0.00000 54.63044  zlo zhi

Masses

1 12.0107 # C

Atoms # full

1 1  1 0.000000 0.000000 0.000000 9.784000  #  C
2 1  1 0.000000 0.000000 -4.350580 9.784000  #  C
3 1  1 0.000000 1.253388 -2.175290 9.784000  #  C
4 1  1 0.000000 2.506775 0.000000 9.784000  #  C
5 1  1 0.000000 1.253388 -6.525870 9.784000  #  C
6 1  1 0.000000 2.506775 -4.350580 9.784000  #  C
7 1  1 0.000000 3.760162 -2.175290 9.784000  #  C
8 1  1 0.000000 5.013550 0.000000 9.784000  #  C
9 1  1 0.000000 3.760162 -6.525870 9.784000  #  C
10 1  1 0.000000 5.013550 -4.350580 9.784000  #  C
11 1  1 0.000000 6.266938 -2.175290 9.784000  #  C
12 1  1 0.000000 7.520325 0.000000 9.784000  #  C
13 1  1 0.000000 6.266938 -6.525870 9.784000  #  C
14 1  1 0.000000 7.520325 -4.350580 9.784000  #  C
15 1  1 0.000000 8.773713 -2.175290 9.784000  #  C
16 1  1 0.000000 8.773713 -6.525870 9.784000  #  C
17 1  1 0.000000 0.000000 -2.900387 9.784000  #  C
18 1  1 0.000000 1.253388 -0.725097 9.784000  #  C
19 1  1 0.000000 0.000000 -7.250967 9.784000  #  C
20 1  1 0.000000 1.253388 -5.075677 9.784000  #  C
21 1  1 0.000000 2.506775 -2.900387 9.784000  #  C
22 1  1 0.000000 3.760162 -0.725097 9.784000  #  C
23 1  1 0.000000 2.506775 -7.250967 9.784000  #  C
24 1  1 0.000000 3.760162 -5.075677 9.784000  #  C
25 1  1 0.000000 5.013550 -2.900387 9.784000  #  C
26 1  1 0.000000 6.266938 -0.725097 9.784000  #  C
27 1  1 0.000000 5.013550 -7.250967 9.784000  #  C
28 1  1 0.000000 6.266938 -5.075677 9.784000  #  C
29 1  1 0.000000 7.520325 -2.900387 9.784000  #  C
30 1  1 0.000000 8.773713 -0.725097 9.784000  #  C
31 1  1 0.000000 7.520325 -7.250967 9.784000  #  C
32 1  1 0.000000 8.773713 -5.075677 9.784000  #  C
113 1  1 0.000000 -10.027100 0.000000 9.784000  #  C
114 1  1 0.000000 -10.027100 -4.350580 9.784000  #  C
115 1  1 0.000000 -8.773713 -2.175290 9.784000  #  C
116 1  1 0.000000 -7.520325 0.000000 9.784000  #  C
117 1  1 0.000000 -8.773713 -6.525870 9.784000  #  C
118 1  1 0.000000 -7.520325 -4.350580 9.784000  #  C
119 1  1 0.000000 -6.266938 -2.175290 9.784000  #  C
120 1  1 0.000000 -5.013550 0.000000 9.784000  #  C
121 1  1 0.000000 -6.266938 -6.525870 9.784000  #  C
122 1  1 0.000000 -5.013550 -4.350580 9.784000  #  C
123 1  1 0.000000 -3.760162 -2.175290 9.784000  #  C
124 1  1 0.000000 -2.506775 0.000000 9.784000  #  C
125 1  1 0.000000 -3.760162 -6.525870 9.784000  #  C
126 1  1 0.000000 -2.506775 -4.350580 9.784000  #  C
127 1  1 0.000000 -1.253388 -2.175290 9.784000  #  C
128 1  1 0.000000 -1.253388 -6.525870 9.784000  #  C
129 1  1 0.000000 -10.027100 -2.900387 9.784000  #  C
130 1  1 0.000000 -8.773713 -0.725097 9.784000  #  C
131 1  1 0.000000 -10.027100 -7.250967 9.784000  #  C
132 1  1 0.000000 -8.773713 -5.075677 9.784000  #  C
133 1  1 0.000000 -7.520325 -2.900387 9.784000  #  C
134 1  1 0.000000 -6.266938 -0.725097 9.784000  #  C
135 1  1 0.000000 -7.520325 -7.250967 9.784000  #  C
136 1  1 0.000000 -6.266938 -5.075677 9.784000  #  C
137 1  1 0.000000 -5.013550 -2.900387 9.784000  #  C
138 1  1 0.000000 -3.760162 -0.725097 9.784000  #  C
139 1  1 0.000000 -5.013550 -7.250967 9.784000  #  C
140 1  1 0.000000 -3.760162 -5.075677 9.784000  #  C
141 1  1 0.000000 -2.506775 -2.900387 9.784000  #  C
142 1  1 0.000000 -1.253388 -0.725097 9.784000  #  C
143 1  1 0.000000 -2.506775 -7.250967 9.784000  #  C
144 1  1 0.000000 -1.253388 -5.075677 9.784000  #  C
225 1  1 0.000000 -20.054200 0.000000 9.784000  #  C
226 1  1 0.000000 -20.054200 -4.350580 9.784000  #  C
227 1  1 0.000000 -18.800812 -2.175290 9.784000  #  C
228 1  1 0.000000 -17.547425 0.000000 9.784000  #  C
229 1  1 0.000000 -18.800812 -6.525870 9.784000  #  C
230 1  1 0.000000 -17.547425 -4.350580 9.784000  #  C
231 1  1 0.000000 -16.294038 -2.175290 9.784000  #  C
232 1  1 0.000000 -15.040650 0.000000 9.784000  #  C
233 1  1 0.000000 -16.294038 -6.525870 9.784000  #  C
234 1  1 0.000000 -15.040650 -4.350580 9.784000  #  C
235 1  1 0.000000 -13.787263 -2.175290 9.784000  #  C
236 1  1 0.000000 -12.533875 0.000000 9.784000  #  C
237 1  1 0.000000 -13.787263 -6.525870 9.784000  #  C
238 1  1 0.000000 -12.533875 -4.350580 9.784000  #  C
239 1  1 0.000000 -11.280487 -2.175290 9.784000  #  C
240 1  1 0.000000 -11.280487 -6.525870 9.784000  #  C
241 1  1 0.000000 -20.054200 -2.900387 9.784000  #  C
242 1  1 0.000000 -18.800812 -0.725097 9.784000  #  C
243 1  1 0.000000 -20.054200 -7.250967 9.784000  #  C
244 1  1 0.000000 -18.800812 -5.075677 9.784000  #  C
245 1  1 0.000000 -17.547425 -2.900387 9.784000  #  C
246 1  1 0.000000 -16.294038 -0.725097 9.784000  #  C
247 1  1 0.000000 -17.547425 -7.250967 9.784000  #  C
248 1  1 0.000000 -16.294038 -5.075677 9.784000  #  C
249 1  1 0.000000 -15.040650 -2.900387 9.784000  #  C
250 1  1 0.000000 -13.787263 -0.725097 9.784000  #  C
251 1  1 0.000000 -15.040650 -7.250967 9.784000  #  C
252 1  1 0.000000 -13.787263 -5.075677 9.784000  #  C
253 1  1 0.000000 -12.533875 -2.900387 9.784000  #  C
254 1  1 0.000000 -11.280487 -0.725097 9.784000  #  C
255 1  1 0.000000 -12.533875 -7.250967 9.784000  #  C
256 1  1 0.000000 -11.280487 -5.075677 9.784000  #  C
337 1  1 0.000000 -30.081300 0.000000 9.784000  #  C
338 1  1 0.000000 -30.081300 -4.350580 9.784000  #  C
339 1  1 0.000000 -28.827913 -2.175290 9.784000  #  C
340 1  1 0.000000 -27.574525 0.000000 9.784000  #  C
341 1  1 0.000000 -28.827913 -6.525870 9.784000  #  C
342 1  1 0.000000 -27.574525 -4.350580 9.784000  #  C
343 1  1 0.000000 -26.321137 -2.175290 9.784000  #  C
344 1  1 0.000000 -25.067750 0.000000 9.784000  #  C
345 1  1 0.000000 -26.321137 -6.525870 9.784000  #  C
346 1  1 0.000000 -25.067750 -4.350580 9.784000  #  C
347 1  1 0.000000 -23.814363 -2.175290 9.784000  #  C
348 1  1 0.000000 -22.560975 0.000000 9.784000  #  C
349 1  1 0.000000 -23.814363 -6.525870 9.784000  #  C
350 1  1 0.000000 -22.560975 -4.350580 9.784000  #  C
351 1  1 0.000000 -21.307588 -2.175290 9.784000  #  C
352 1  1 0.000000 -21.307588 -6.525870 9.784000  #  C
353 1  1 0.000000 -30.081300 -2.900387 9.784000  #  C
354 1  1 0.000000 -28.827913 -0.725097 9.784000  #  C
355 1  1 0.000000 -30.081300 -7.250967 9.784000  #  C
356 1  1 0.000000 -28.827913 -5.075677 9.784000  #  C
357 1  1 0.000000 -27.574525 -2.900387 9.784000  #  C
358 1  1 0.000000 -26.321137 -0.725097 9.784000  #  C
359 1  1 0.000000 -27.574525 -7.250967 9.784000  #  C
360 1  1 0.000000 -26.321137 -5.075677 9.784000  #  C
361 1  1 0.000000 -25.067750 -2.900387 9.784000  #  C
362 1  1 0.000000 -23.814363 -0.725097 9.784000  #  C
363 1  1 0.000000 -25.067750 -7.250967 9.784000  #  C
364 1  1 0.000000 -23.814363 -5.075677 9.784000  #  C
365 1  1 0.000000 -22.560975 -2.900387 9.784000  #  C
366 1  1 0.000000 -21.307588 -0.725097 9.784000  #  C
367 1  1 0.000000 -22.560975 -7.250967 9.784000  #  C
368 1  1 0.000000 -21.307588 -5.075677 9.784000  #  C
449 1  1 0.000000 0.000000 8.701160 9.784000  #  C
450 1  1 0.000000 0.000000 4.350580 9.784000  #  C
451 1  1 0.000000 1.253388 6.525870 9.784000  #  C
452 1  1 0.000000 2.506775 8.701160 9.784000  #  C
453 1  1 0.000000 1.253388 2.175290 9.784000  #  C
454 1  1 0.000000 2.506775 4.350580 9.784000  #  C
455 1  1 0.000000 3.760162 6.525870 9.784000  #  C
456 1  1 0.000000 5.013550 8.701160 9.784000  #  C
457 1  1 0.000000 3.760162 2.175290 9.784000  #  C
458 1  1 0.000000 5.013550 4.350580 9.784000  #  C
459 1  1 0.000000 6.266938 6.525870 9.784000  #  C
460 1  1 0.000000 7.520325 8.701160 9.784000  #  C
461 1  1 0.000000 6.266938 2.175290 9.784000  #  C
462 1  1 0.000000 7.520325 4.350580 9.784000  #  C
463 1  1 0.000000 8.773713 6.525870 9.784000  #  C
464 1  1 0.000000 8.773713 2.175290 9.784000  #  C
465 1  1 0.000000 0.000000 5.800773 9.784000  #  C
466 1  1 0.000000 1.253388 7.976063 9.784000  #  C
467 1  1 0.000000 0.000000 1.450193 9.784000  #  C
468 1  1 0.000000 1.253388 3.625483 9.784000  #  C
469 1  1 0.000000 2.506775 5.800773 9.784000  #  C
470 1  1 0.000000 3.760162 7.976063 9.784000  #  C
471 1  1 0.000000 2.506775 1.450193 9.784000  #  C
472 1  1 0.000000 3.760162 3.625483 9.784000  #  C
473 1  1 0.000000 5.013550 5.800773 9.784000  #  C
474 1  1 0.000000 6.266938 7.976063 9.784000  #  C
475 1  1 0.000000 5.013550 1.450193 9.784000  #  C
476 1  1 0.000000 6.266938 3.625483 9.784000  #  C
477 1  1 0.000000 7.520325 5.800773 9.784000  #  C
478 1  1 0.000000 8.773713 7.976063 9.784000  #  C
479 1  1 0.000000 7.520325 1.450193 9.784000  #  C
480 1  1 0.000000 8.773713 3.625483 9.784000  #  C
561 1  1 0.000000 -10.027100 8.701160 9.784000  #  C
562 1  1 0.000000 -10.027100 4.350580 9.784000  #  C
563 1  1 0.000000 -8.773713 6.525870 9.784000  #  C
564 1  1 0.000000 -7.520325 8.701160 9.784000  #  C
565 1  1 0.000000 -8.773713 2.175290 9.784000  #  C
566 1  1 0.000000 -7.520325 4.350580 9.784000  #  C
567 1  1 0.000000 -6.266938 6.525870 9.784000  #  C
568 1  1 0.000000 -5.013550 8.701160 9.784000  #  C
569 1  1 0.000000 -6.266938 2.175290 9.784000  #  C
570 1  1 0.000000 -5.013550 4.350580 9.784000  #  C
571 1  1 0.000000 -3.760162 6.525870 9.784000  #  C
572 1  1 0.000000 -2.506775 8.701160 9.784000  #  C
573 1  1 0.000000 -3.760162 2.175290 9.784000  #  C
574 1  1 0.000000 -2.506775 4.350580 9.784000  #  C
575 1  1 0.000000 -1.253388 6.525870 9.784000  #  C
576 1  1 0.000000 -1.253388 2.175290 9.784000  #  C
577 1  1 0.000000 -10.027100 5.800773 9.784000  #  C
578 1  1 0.000000 -8.773713 7.976063 9.784000  #  C
579 1  1 0.000000 -10.027100 1.450193 9.784000  #  C
580 1  1 0.000000 -8.773713 3.625483 9.784000  #  C
581 1  1 0.000000 -7.520325 5.800773 9.784000  #  C
582 1  1 0.000000 -6.266938 7.976063 9.784000  #  C
583 1  1 0.000000 -7.520325 1.450193 9.784000  #  C
584 1  1 0.000000 -6.266938 3.625483 9.784000  #  C
585 1  1 0.000000 -5.013550 5.800773 9.784000  #  C
586 1  1 0.000000 -3.760162 7.976063 9.784000  #  C
587 1  1 0.000000 -5.013550 1.450193 9.784000  #  C
588 1  1 0.000000 -3.760162 3.625483 9.784000  #  C
589 1  1 0.000000 -2.506775 5.800773 9.784000  #  C
590 1  1 0.000000 -1.253388 7.976063 9.784000  #  C
591 1  1 0.000000 -2.506775 1.450193 9.784000  #  C
592 1  1 0.000000 -1.253388 3.625483 9.784000  #  C
673 1  1 0.000000 -20.054200 8.701160 9.784000  #  C
674 1  1 0.000000 -20.054200 4.350580 9.784000  #  C
675 1  1 0.000000 -18.800812 6.525870 9.784000  #  C
676 1  1 0.000000 -17.547425 8.701160 9.784000  #  C
677 1  1 0.000000 -18.800812 2.175290 9.784000  #  C
678 1  1 0.000000 -17.547425 4.350580 9.784000  #  C
679 1  1 0.000000 -16.294038 6.525870 9.784000  #  C
680 1  1 0.000000 -15.040650 8.701160 9.784000  #  C
681 1  1 0.000000 -16.294038 2.175290 9.784000  #  C
682 1  1 0.000000 -15.040650 4.350580 9.784000  #  C
683 1  1 0.000000 -13.787263 6.525870 9.784000  #  C
684 1  1 0.000000 -12.533875 8.701160 9.784000  #  C
685 1  1 0.000000 -13.787263 2.175290 9.784000  #  C
686 1  1 0.000000 -12.533875 4.350580 9.784000  #  C
687 1  1 0.000000 -11.280487 6.525870 9.784000  #  C
688 1  1 0.000000 -11.280487 2.175290 9.784000  #  C
689 1  1 0.000000 -20.054200 5.800773 9.784000  #  C
690 1  1 0.000000 -18.800812 7.976063 9.784000  #  C
691 1  1 0.000000 -20.054200 1.450193 9.784000  #  C
692 1  1 0.000000 -18.800812 3.625483 9.784000  #  C
693 1  1 0.000000 -17.547425 5.800773 9.784000  #  C
694 1  1 0.000000 -16.294038 7.976063 9.784000  #  C
695 1  1 0.000000 -17.547425 1.450193 9.784000  #  C
696 1  1 0.000000 -16.294038 3.625483 9.784000  #  C
697 1  1 0.000000 -15.040650 5.800773 9.784000  #  C
698 1  1 0.000000 -13.787263 7.976063 9.784000  #  C
699 1  1 0.000000 -15.040650 1.450193 9.784000  #  C
700 1  1 0.000000 -13.787263 3.625483 9.784000  #  C
701 1  1 0.000000 -12.533875 5.800773 9.784000  #  C
702 1  1 0.000000 -11.280487 7.976063 9.784000  #  C
703 1  1 0.000000 -12.533875 1.450193 9.784000  #  C
704 1  1 0.000000 -11.280487 3.625483 9.784000  #  C
785 1  1 0.000000 -30.081300 8.701160 9.784000  #  C
786 1  1 0.000000 -30.081300 4.350580 9.784000  #  C
787 1  1 0.000000 -28.827913 6.525870 9.784000  #  C
788 1  1 0.000000 -27.574525 8.701160 9.784000  #  C
789 1  1 0.000000 -28.827913 2.175290 9.784000  #  C
790 1  1 0.000000 -27.574525 4.350580 9.784000  #  C
791 1  1 0.000000 -26.321137 6.525870 9.784000  #  C
792 1  1 0.000000 -25.067750 8.701160 9.784000  #  C
793 1  1 0.000000 -26.321137 2.175290 9.784000  #  C
794 1  1 0.000000 -25.067750 4.350580 9.784000  #  C
795 1  1 0.000000 -23.814363 6.525870 9.784000  #  C
796 1  1 0.000000 -22.560975 8.701160 9.784000  #  C
797 1  1 0.000000 -23.814363 2.175290 9.784000  #  C
798 1  1 0.000000 -22.560975 4.350580 9.784000  #  C
799 1  1 0.000000 -21.307588 6.525870 9.784000  #  C
800 1  1 0.000000 -21.307588 2.175290 9.784000  #  C
801 1  1 0.000000 -30.081300 5.800773 9.784000  #  C
802 1  1 0.000000 -28.827913 7.976063 9.784000  #  C
803 1  1 0.000000 -30.081300 1.450193 9.784000  #  C
804 1  1 0.000000 -28.827913 3.625483 9.784000  #  C
805 1  1 0.000000 -27.574525 5.800773 9.784000  #  C
806 1  1 0.000000 -26.321137 7.976063 9.784000  #  C
807 1  1 0.000000 -27.574525 1.450193 9.784000  #  C
808 1  1 0.000000 -26.321137 3.625483 9.784000  #  C
809 1  1 0.000000 -25.067750 5.800773 9.784000  #  C
810 1  1 0.000000 -23.814363 7.976063 9.784000  #  C
811 1  1 0.000000 -25.067750 1.450193 9.784000  #  C
812 1  1 0.000000 -23.814363 3.625483 9.784000  #  C
813 1  1 0.000000 -22.560975 5.800773 9.784000  #  C
814 1  1 0.000000 -21.307588 7.976063 9.784000  #  C
815 1  1 0.000000 -22.560975 1.450193 9.784000  #  C
816 1  1 0.000000 -21.307588 3.625483 9.784000  #  C
897 1  1 0.000000 0.000000 17.402320 9.784000  #  C
898 1  1 0.000000 0.000000 13.051740 9.784000  #  C
899 1  1 0.000000 1.253388 15.227030 9.784000  #  C
900 1  1 0.000000 2.506775 17.402320 9.784000  #  C
901 1  1 0.000000 1.253388 10.876450 9.784000  #  C
902 1  1 0.000000 2.506775 13.051740 9.784000  #  C
903 1  1 0.000000 3.760162 15.227030 9.784000  #  C
904 1  1 0.000000 5.013550 17.402320 9.784000  #  C
905 1  1 0.000000 3.760162 10.876450 9.784000  #  C
906 1  1 0.000000 5.013550 13.051740 9.784000  #  C
907 1  1 0.000000 6.266938 15.227030 9.784000  #  C
908 1  1 0.000000 7.520325 17.402320 9.784000  #  C
909 1  1 0.000000 6.266938 10.876450 9.784000  #  C
910 1  1 0.000000 7.520325 13.051740 9.784000  #  C
911 1  1 0.000000 8.773713 15.227030 9.784000  #  C
912 1  1 0.000000 8.773713 10.876450 9.784000  #  C
913 1  1 0.000000 0.000000 14.501933 9.784000  #  C
914 1  1 0.000000 1.253388 16.677223 9.784000  #  C
915 1  1 0.000000 0.000000 10.151353 9.784000  #  C
916 1  1 0.000000 1.253388 12.326643 9.784000  #  C
917 1  1 0.000000 2.506775 14.501933 9.784000  #  C
918 1  1 0.000000 3.760162 16.677223 9.784000  #  C
919 1  1 0.000000 2.506775 10.151353 9.784000  #  C
920 1  1 0.000000 3.760162 12.326643 9.784000  #  C
921 1  1 0.000000 5.013550 14.501933 9.784000  #  C
922 1  1 0.000000 6.266938 16.677223 9.784000  #  C
923 1  1 0.000000 5.013550 10.151353 9.784000  #  C
924 1  1 0.000000 6.266938 12.326643 9.784000  #  C
925 1  1 0.000000 7.520325 14.501933 9.784000  #  C
926 1  1 0.000000 8.773713 16.677223 9.784000  #  C
927 1  1 0.000000 7.520325 10.151353 9.784000  #  C
928 1  1 0.000000 8.773713 12.326643 9.784000  #  C
1009 1  1 0.000000 -10.027100 17.402320 9.784000  #  C
1010 1  1 0.000000 -10.027100 13.051740 9.784000  #  C
1011 1  1 0.000000 -8.773713 15.227030 9.784000  #  C
1012 1  1 0.000000 -7.520325 17.402320 9.784000  #  C
1013 1  1 0.000000 -8.773713 10.876450 9.784000  #  C
1014 1  1 0.000000 -7.520325 13.051740 9.784000  #  C
1015 1  1 0.000000 -6.266938 15.227030 9.784000  #  C
1016 1  1 0.000000 -5.013550 17.402320 9.784000  #  C
1017 1  1 0.000000 -6.266938 10.876450 9.784000  #  C
1018 1  1 0.000000 -5.013550 13.051740 9.784000  #  C
1019 1  1 0.000000 -3.760162 15.227030 9.784000  #  C
1020 1  1 0.000000 -2.506775 17.402320 9.784000  #  C
1021 1  1 0.000000 -3.760162 10.876450 9.784000  #  C
1022 1  1 0.000000 -2.506775 13.051740 9.784000  #  C
1023 1  1 0.000000 -1.253388 15.227030 9.784000  #  C
1024 1  1 0.000000 -1.253388 10.876450 9.784000  #  C
1025 1  1 0.000000 -10.027100 14.501933 9.784000  #  C
1026 1  1 0.000000 -8.773713 16.677223 9.784000  #  C
1027 1  1 0.000000 -10.027100 10.151353 9.784000  #  C
1028 1  1 0.000000 -8.773713 12.326643 9.784000  #  C
1029 1  1 0.000000 -7.520325 14.501933 9.784000  #  C
1030 1  1 0.000000 -6.266938 16.677223 9.784000  #  C
1031 1  1 0.000000 -7.520325 10.151353 9.784000  #  C
1032 1  1 0.000000 -6.266938 12.326643 9.784000  #  C
1033 1  1 0.000000 -5.013550 14.501933 9.784000  #  C
1034 1  1 0.000000 -3.760162 16.677223 9.784000  #  C
1035 1  1 0.000000 -5.013550 10.151353 9.784000  #  C
1036 1  1 0.000000 -3.760162 12.326643 9.784000  #  C
1037 1  1 0.000000 -2.506775 14.501933 9.784000  #  C
1038 1  1 0.000000 -1.253388 16.677223 9.784000  #  C
1039 1  1 0.000000 -2.506775 10.151353 9.784000  #  C
1040 1  1 0.000000 -1.253388 12.326643 9.784000  #  C
1121 1  1 0.000000 -20.054200 17.402320 9.784000  #  C
1122 1  1 0.000000 -20.054200 13.051740 9.784000  #  C
1123 1  1 0.000000 -18.800812 15.227030 9.784000  #  C
1124 1  1 0.000000 -17.547425 17.402320 9.784000  #  C
1125 1  1 0.000000 -18.800812 10.876450 9.784000  #  C
1126 1  1 0.000000 -17.547425 13.051740 9.784000  #  C
1127 1  1 0.000000 -16.294038 15.227030 9.784000  #  C
1128 1  1 0.000000 -15.040650 17.402320 9.784000  #  C
1129 1  1 0.000000 -16.294038 10.876450 9.784000  #  C
1130 1  1 0.000000 -15.040650 13.051740 9.784000  #  C
1131 1  1 0.000000 -13.787263 15.227030 9.784000  #  C
1132 1  1 0.000000 -12.533875 17.402320 9.784000  #  C
1133 1  1 0.000000 -13.787263 10.876450 9.784000  #  C
1134 1  1 0.000000 -12.533875 13.051740 9.784000  #  C
1135 1  1 0.000000 -11.280487 15.227030 9.784000  #  C
1136 1  1 0.000000 -11.280487 10.876450 9.784000  #  C
1137 1  1 0.000000 -20.054200 14.501933 9.784000  #  C
1138 1  1 0.000000 -18.800812 16.677223 9.784000  #  C
1139 1  1 0.000000 -20.054200 10.151353 9.784000  #  C
1140 1  1 0.000000 -18.800812 12.326643 9.784000  #  C
1141 1  1 0.000000 -17.547425 14.501933 9.784000  #  C
1142 1  1 0.000000 -16.294038 16.677223 9.784000  #  C
1143 1  1 0.000000 -17.547425 10.151353 9.784000  #  C
1144 1  1 0.000000 -16.294038 12.326643 9.784000  #  C
1145 1  1 0.000000 -15.040650 14.501933 9.784000  #  C
1146 1  1 0.000000 -13.787263 16.677223 9.784000  #  C
1147 1  1 0.000000 -15.040650 10.151353 9.784000  #  C
1148 1  1 0.000000 -13.787263 12.326643 9.784000  #  C
1149 1  1 0.000000 -12.533875 14.501933 9.784000  #  C
1150 1  1 0.000000 -11.280487 16.677223 9.784000  #  C
1151 1  1 0.000000 -12.533875 10.151353 9.784000  #  C
1152 1  1 0.000000 -11.280487 12.326643 9.784000  #  C
1233 1  1 0.000000 -30.081300 17.402320 9.784000  #  C
1234 1  1 0.000000 -30.081300 13.051740 9.784000  #  C
1235 1  1 0.000000 -28.827913 15.227030 9.784000  #  C
1236 1  1 0.000000 -27.574525 17.402320 9.784000  #  C
1237 1  1 0.000000 -28.827913 10.876450 9.784000  #  C
1238 1  1 0.000000 -27.574525 13.051740 9.784000  #  C
1239 1  1 0.000000 -26.321137 15.227030 9.784000  #  C
1240 1  1 0.000000 -25.067750 17.402320 9.784000  #  C
1241 1  1 0.000000 -26.321137 10.876450 9.784000  #  C
1242 1  1 0.000000 -25.067750 13.051740 9.784000  #  C
1243 1  1 0.000000 -23.814363 15.227030 9.784000  #  C
1244 1  1 0.000000 -22.560975 17.402320 9.784000  #  C
1245 1  1 0.000000 -23.814363 10.876450 9.784000  #  C
1246 1  1 0.000000 -22.560975 13.051740 9.784000  #  C
1247 1  1 0.000000 -21.307588 15.227030 9.784000  #  C
1248 1  1 0.000000 -21.307588 10.876450 9.784000  #  C
1249 1  1 0.000000 -30.081300 14.501933 9.784000  #  C
1250 1  1 0.000000 -28.827913 16.677223 9.784000  #  C
1251 1  1 0.000000 -30.081300 10.151353 9.784000  #  C
1252 1  1 0.000000 -28.827913 12.326643 9.784000  #  C
1253 1  1 0.000000 -27.574525 14.501933 9.784000  #  C
1254 1  1 0.000000 -26.321137 16.677223 9.784000  #  C
1255 1  1 0.000000 -27.574525 10.151353 9.784000  #  C
1256 1  1 0.000000 -26.321137 12.326643 9.784000  #  C
1257 1  1 0.000000 -25.067750 14.501933 9.784000  #  C
1258 1  1 0.000000 -23.814363 16.677223 9.784000  #  C
1259 1  1 0.000000 -25.067750 10.151353 9.784000  #  C
1260 1  1 0.000000 -23.814363 12.326643 9.784000  #  C
1261 1  1 0.000000 -22.560975 14.501933 9.784000  #  C
1262 1  1 0.000000 -21.307588 16.677223 9.784000  #  C
1263 1  1 0.000000 -22.560975 10.151353 9.784000  #  C
1264 1  1 0.000000 -21.307588 12.326643 9.784000  #  C
1345 1  1 0.000000 0.000000 26.103480 9.784000  #  C
1346 1  1 0.000000 0.000000 21.752900 9.784000  #  C
1347 1  1 0.000000 1.253388 23.928190 9.784000  #  C
1348 1  1 0.000000 2.506775 26.103480 9.784000  #  C
1349 1  1 0.000000 1.253388 19.577610 9.784000  #  C
1350 1  1 0.000000 2.506775 21.752900 9.784000  #  C
1351 1  1 0.000000 3.760162 23.928190 9.784000  #  C
1352 1  1 0.000000 5.013550 26.103480 9.784000  #  C
1353 1  1 0.000000 3.760162 19.577610 9.784000  #  C
1354 1  1 0.000000 5.013550 21.752900 9.784000  #  C
1355 1  1 0.000000 6.266938 23.928190 9.784000  #  C
1356 1  1 0.000000 7.520325 26.103480 9.784000  #  C
1357 1  1 0.000000 6.266938 19.577610 9.784000  #  C
1358 1  1 0.000000 7.520325 21.752900 9.784000  #  C
1359 1  1 0.000000 8.773713 23.928190 9.784000  #  C
1360 1  1 0.000000 8.773713 19.577610 9.784000  #  C
1361 1  1 0.000000 0.000000 23.203093 9.784000  #  C
1362 1  1 0.000000 1.253388 25.378383 9.784000  #  C
1363 1  1 0.000000 0.000000 18.852513 9.784000  #  C
1364 1  1 0.000000 1.253388 21.027803 9.784000  #  C
1365 1  1 0.000000 2.506775 23.203093 9.784000  #  C
1366 1  1 0.000000 3.760162 25.378383 9.784000  #  C
1367 1  1 0.000000 2.506775 18.852513 9.784000  #  C
1368 1  1 0.000000 3.760162 21.027803 9.784000  #  C
1369 1  1 0.000000 5.013550 23.203093 9.784000  #  C
1370 1  1 0.000000 6.266938 25.378383 9.784000  #  C
1371 1  1 0.000000 5.013550 18.852513 9.784000  #  C
1372 1  1 0.000000 6.266938 21.027803 9.784000  #  C
1373 1  1 0.000000 7.520325 23.203093 9.784000  #  C
1374 1  1 0.000000 8.773713 25.378383 9.784000  #  C
1375 1  1 0.000000 7.520325 18.852513 9.784000  #  C
1376 1  1 0.000000 8.773713 21.027803 9.784000  #  C
1457 1  1 0.000000 -10.027100 26.103480 9.784000  #  C
1458 1  1 0.000000 -10.027100 21.752900 9.784000  #  C
1459 1  1 0.000000 -8.773713 23.928190 9.784000  #  C
1460 1  1 0.000000 -7.520325 26.103480 9.784000  #  C
1461 1  1 0.000000 -8.773713 19.577610 9.784000  #  C
1462 1  1 0.000000 -7.520325 21.752900 9.784000  #  C
1463 1  1 0.000000 -6.266938 23.928190 9.784000  #  C
1464 1  1 0.000000 -5.013550 26.103480 9.784000  #  C
1465 1  1 0.000000 -6.266938 19.577610 9.784000  #  C
1466 1  1 0.000000 -5.013550 21.752900 9.784000  #  C
1467 1  1 0.000000 -3.760162 23.928190 9.784000  #  C
1468 1  1 0.000000 -2.506775 26.103480 9.784000  #  C
1469 1  1 0.000000 -3.760162 19.577610 9.784000  #  C
1470 1  1 0.000000 -2.506775 21.752900 9.784000  #  C
1471 1  1 0.000000 -1.253388 23.928190 9.784000  #  C
1472 1  1 0.000000 -1.253388 19.577610 9.784000  #  C
1473 1  1 0.000000 -10.027100 23.203093 9.784000  #  C
1474 1  1 0.000000 -8.773713 25.378383 9.784000  #  C
1475 1  1 0.000000 -10.027100 18.852513 9.784000  #  C
1476 1  1 0.000000 -8.773713 21.027803 9.784000  #  C
1477 1  1 0.000000 -7.520325 23.203093 9.784000  #  C
1478 1  1 0.000000 -6.266938 25.378383 9.784000  #  C
1479 1  1 0.000000 -7.520325 18.852513 9.784000  #  C
1480 1  1 0.000000 -6.266938 21.027803 9.784000  #  C
1481 1  1 0.000000 -5.013550 23.203093 9.784000  #  C
1482 1  1 0.000000 -3.760162 25.378383 9.784000  #  C
1483 1  1 0.000000 -5.013550 18.852513 9.784000  #  C
1484 1  1 0.000000 -3.760162 21.027803 9.784000  #  C
1485 1  1 0.000000 -2.506775 23.203093 9.784000  #  C
1486 1  1 0.000000 -1.253388 25.378383 9.784000  #  C
1487 1  1 0.000000 -2.506775 18.852513 9.784000  #  C
1488 1  1 0.000000 -1.253388 21.027803 9.784000  #  C
1569 1  1 0.000000 -20.054200 26.103480 9.784000  #  C
1570 1  1 0.000000 -20.054200 21.752900 9.784000  #  C
1571 1  1 0.000000 -18.800812 23.928190 9.784000  #  C
1572 1  1 0.000000 -17.547425 26.103480 9.784000  #  C
1573 1  1 0.000000 -18.800812 19.577610 9.784000  #  C
1574 1  1 0.000000 -17.547425 21.752900 9.784000  #  C
1575 1  1 0.000000 -16.294038 23.928190 9.784000  #  C
1576 1  1 0.000000 -15.040650 26.103480 9.784000  #  C
1577 1  1 0.000000 -16.294038 19.577610 9.784000  #  C
1578 1  1 0.000000 -15.040650 21.752900 9.784000  #  C
1579 1  1 0.000000 -13.787263 23.928190 9.784000  #  C
1580 1  1 0.000000 -12.533875 26.103480 9.784000  #  C
1581 1  1 0.000000 -13.787263 19.577610 9.784000  #  C
1582 1  1 0.000000 -12.533875 21.752900 9.784000  #  C
1583 1  1 0.000000 -11.280487 23.928190 9.784000  #  C
1584 1  1 0.000000 -11.280487 19.577610 9.784000  #  C
1585 1  1 0.000000 -20.054200 23.203093 9.784000  #  C
1586 1  1 0.000000 -18.800812 25.378383 9.784000  #  C
1587 1  1 0.000000 -20.054200 18.852513 9.784000  #  C
1588 1  1 0.000000 -18.800812 21.027803 9.784000  #  C
1589 1  1 0.000000 -17.547425 23.203093 9.784000  #  C
1590 1  1 0.000000 -16.294038 25.378383 9.784000  #  C
1591 1  1 0.000000 -17.547425 18.852513 9.784000  #  C
1592 1  1 0.000000 -16.294038 21.027803 9.784000  #  C
1593 1  1 0.000000 -15.040650 23.203093 9.784000  #  C
1594 1  1 0.000000 -13.787263 25.378383 9.784000  #  C
1595 1  1 0.000000 -15.040650 18.852513 9.784000  #  C
1596 1  1 0.000000 -13.787263 21.027803 9.784000  #  C
1597 1  1 0.000000 -12.533875 23.203093 9.784000  #  C
1598 1  1 0.000000 -11.280487 25.378383 9.784000  #  C
1599 1  1 0.000000 -12.533875 18.852513 9.784000  #  C
1600 1  1 0.000000 -11.280487 21.027803 9.784000  #  C
1681 1  1 0.000000 -30.081300 26.103480 9.784000  #  C
1682 1  1 0.000000 -30.081300 21.752900 9.784000  #  C
1683 1  1 0.000000 -28.827913 23.928190 9.784000  #  C
1684 1  1 0.000000 -27.574525 26.103480 9.784000  #  C
1685 1  1 0.000000 -28.827913 19.577610 9.784000  #  C
1686 1  1 0.000000 -27.574525 21.752900 9.784000  #  C
1687 1  1 0.000000 -26.321137 23.928190 9.784000  #  C
1688 1  1 0.000000 -25.067750 26.103480 9.784000  #  C
1689 1  1 0.000000 -26.321137 19.577610 9.784000  #  C
1690 1  1 0.000000 -25.067750 21.752900 9.784000  #  C
1691 1  1 0.000000 -23.814363 23.928190 9.784000  #  C
1692 1  1 0.000000 -22.560975 26.103480 9.784000  #  C
1693 1  1 0.000000 -23.814363 19.577610 9.784000  #  C
1694 1  1 0.000000 -22.560975 21.752900 9.784000  #  C
1695 1  1 0.000000 -21.307588 23.928190 9.784000  #  C
1696 1  1 0.000000 -21.307588 19.577610 9.784000  #  C
1697 1  1 0.000000 -30.081300 23.203093 9.784000  #  C
1698 1  1 0.000000 -28.827913 25.378383 9.784000  #  C
1699 1  1 0.000000 -30.081300 18.852513 9.784000  #  C
1700 1  1 0.000000 -28.827913 21.027803 9.784000  #  C
1701 1  1 0.000000 -27.574525 23.203093 9.784000  #  C
1702 1  1 0.000000 -26.321137 25.378383 9.784000  #  C
1703 1  1 0.000000 -27.574525 18.852513 9.784000  #  C
1704 1  1 0.000000 -26.321137 21.027803 9.784000  #  C
1705 1  1 0.000000 -25.067750 23.203093 9.784000  #  C
1706 1  1 0.000000 -23.814363 25.378383 9.784000  #  C
1707 1  1 0.000000 -25.067750 18.852513 9.784000  #  C
1708 1  1 0.000000 -23.814363 21.027803 9.784000  #  C
1709 1  1 0.000000 -22.560975 23.203093 9.784000  #  C
1710 1  1 0.000000 -21.307588 25.378383 9.784000  #  C
1711 1  1 0.000000 -22.560975 18.852513 9.784000  #  C
1712 1  1 0.000000 -21.307588 21.027803 9.784000  #  C
