# LAMMPS data file

512 atoms
768 bonds
1536 angles
3072 dihedrals
512 impropers

0.0 40.108 xlo xhi
0.0 34.805 ylo yhi
0.0 54.62494 zlo zhi

Masses

1 12.0107  # C

Atoms  # full

1 1 1 0.000000 30.081300 8.701160 9.784000
2 1 1 0.000000 30.081300 4.350580 9.784000
3 1 1 0.000000 31.334688 6.525870 9.784000
4 1 1 0.000000 32.588075 8.701160 9.784000
5 1 1 0.000000 31.334688 2.175290 9.784000
6 1 1 0.000000 32.588075 4.350580 9.784000
7 1 1 0.000000 33.841462 6.525870 9.784000
8 1 1 0.000000 35.094850 8.701160 9.784000
9 1 1 0.000000 33.841462 2.175290 9.784000
10 1 1 0.000000 35.094850 4.350580 9.784000
11 1 1 0.000000 36.348238 6.525870 9.784000
12 1 1 0.000000 37.601625 8.701160 9.784000
13 1 1 0.000000 36.348238 2.175290 9.784000
14 1 1 0.000000 37.601625 4.350580 9.784000
15 1 1 0.000000 38.855013 6.525870 9.784000
16 1 1 0.000000 38.855013 2.175290 9.784000
17 1 1 0.000000 30.081300 5.800773 9.784000
18 1 1 0.000000 31.334688 7.976063 9.784000
19 1 1 0.000000 30.081300 1.450193 9.784000
20 1 1 0.000000 31.334688 3.625483 9.784000
21 1 1 0.000000 32.588075 5.800773 9.784000
22 1 1 0.000000 33.841462 7.976063 9.784000
23 1 1 0.000000 32.588075 1.450193 9.784000
24 1 1 0.000000 33.841462 3.625483 9.784000
25 1 1 0.000000 35.094850 5.800773 9.784000
26 1 1 0.000000 36.348238 7.976063 9.784000
27 1 1 0.000000 35.094850 1.450193 9.784000
28 1 1 0.000000 36.348238 3.625483 9.784000
29 1 1 0.000000 37.601625 5.800773 9.784000
30 1 1 0.000000 38.855013 7.976063 9.784000
31 1 1 0.000000 37.601625 1.450193 9.784000
32 1 1 0.000000 38.855013 3.625483 9.784000
33 1 1 0.000000 20.054200 8.701160 9.784000
34 1 1 0.000000 20.054200 4.350580 9.784000
35 1 1 0.000000 21.307588 6.525870 9.784000
36 1 1 0.000000 22.560975 8.701160 9.784000
37 1 1 0.000000 21.307588 2.175290 9.784000
38 1 1 0.000000 22.560975 4.350580 9.784000
39 1 1 0.000000 23.814363 6.525870 9.784000
40 1 1 0.000000 25.067750 8.701160 9.784000
41 1 1 0.000000 23.814363 2.175290 9.784000
42 1 1 0.000000 25.067750 4.350580 9.784000
43 1 1 0.000000 26.321137 6.525870 9.784000
44 1 1 0.000000 27.574525 8.701160 9.784000
45 1 1 0.000000 26.321137 2.175290 9.784000
46 1 1 0.000000 27.574525 4.350580 9.784000
47 1 1 0.000000 28.827913 6.525870 9.784000
48 1 1 0.000000 28.827913 2.175290 9.784000
49 1 1 0.000000 20.054200 5.800773 9.784000
50 1 1 0.000000 21.307588 7.976063 9.784000
51 1 1 0.000000 20.054200 1.450193 9.784000
52 1 1 0.000000 21.307588 3.625483 9.784000
53 1 1 0.000000 22.560975 5.800773 9.784000
54 1 1 0.000000 23.814363 7.976063 9.784000
55 1 1 0.000000 22.560975 1.450193 9.784000
56 1 1 0.000000 23.814363 3.625483 9.784000
57 1 1 0.000000 25.067750 5.800773 9.784000
58 1 1 0.000000 26.321137 7.976063 9.784000
59 1 1 0.000000 25.067750 1.450193 9.784000
60 1 1 0.000000 26.321137 3.625483 9.784000
61 1 1 0.000000 27.574525 5.800773 9.784000
62 1 1 0.000000 28.827913 7.976063 9.784000
63 1 1 0.000000 27.574525 1.450193 9.784000
64 1 1 0.000000 28.827913 3.625483 9.784000
65 1 1 0.000000 10.027100 8.701160 9.784000
66 1 1 0.000000 10.027100 4.350580 9.784000
67 1 1 0.000000 11.280487 6.525870 9.784000
68 1 1 0.000000 12.533875 8.701160 9.784000
69 1 1 0.000000 11.280487 2.175290 9.784000
70 1 1 0.000000 12.533875 4.350580 9.784000
71 1 1 0.000000 13.787263 6.525870 9.784000
72 1 1 0.000000 15.040650 8.701160 9.784000
73 1 1 0.000000 13.787263 2.175290 9.784000
74 1 1 0.000000 15.040650 4.350580 9.784000
75 1 1 0.000000 16.294038 6.525870 9.784000
76 1 1 0.000000 17.547425 8.701160 9.784000
77 1 1 0.000000 16.294038 2.175290 9.784000
78 1 1 0.000000 17.547425 4.350580 9.784000
79 1 1 0.000000 18.800812 6.525870 9.784000
80 1 1 0.000000 18.800812 2.175290 9.784000
81 1 1 0.000000 10.027100 5.800773 9.784000
82 1 1 0.000000 11.280487 7.976063 9.784000
83 1 1 0.000000 10.027100 1.450193 9.784000
84 1 1 0.000000 11.280487 3.625483 9.784000
85 1 1 0.000000 12.533875 5.800773 9.784000
86 1 1 0.000000 13.787263 7.976063 9.784000
87 1 1 0.000000 12.533875 1.450193 9.784000
88 1 1 0.000000 13.787263 3.625483 9.784000
89 1 1 0.000000 15.040650 5.800773 9.784000
90 1 1 0.000000 16.294038 7.976063 9.784000
91 1 1 0.000000 15.040650 1.450193 9.784000
92 1 1 0.000000 16.294038 3.625483 9.784000
93 1 1 0.000000 17.547425 5.800773 9.784000
94 1 1 0.000000 18.800812 7.976063 9.784000
95 1 1 0.000000 17.547425 1.450193 9.784000
96 1 1 0.000000 18.800812 3.625483 9.784000
97 1 1 0.000000 0.000000 8.701160 9.784000
98 1 1 0.000000 0.000000 4.350580 9.784000
99 1 1 0.000000 1.253388 6.525870 9.784000
100 1 1 0.000000 2.506775 8.701160 9.784000
101 1 1 0.000000 1.253388 2.175290 9.784000
102 1 1 0.000000 2.506775 4.350580 9.784000
103 1 1 0.000000 3.760162 6.525870 9.784000
104 1 1 0.000000 5.013550 8.701160 9.784000
105 1 1 0.000000 3.760162 2.175290 9.784000
106 1 1 0.000000 5.013550 4.350580 9.784000
107 1 1 0.000000 6.266938 6.525870 9.784000
108 1 1 0.000000 7.520325 8.701160 9.784000
109 1 1 0.000000 6.266938 2.175290 9.784000
110 1 1 0.000000 7.520325 4.350580 9.784000
111 1 1 0.000000 8.773713 6.525870 9.784000
112 1 1 0.000000 8.773713 2.175290 9.784000
113 1 1 0.000000 0.000000 5.800773 9.784000
114 1 1 0.000000 1.253388 7.976063 9.784000
115 1 1 0.000000 0.000000 1.450193 9.784000
116 1 1 0.000000 1.253388 3.625483 9.784000
117 1 1 0.000000 2.506775 5.800773 9.784000
118 1 1 0.000000 3.760162 7.976063 9.784000
119 1 1 0.000000 2.506775 1.450193 9.784000
120 1 1 0.000000 3.760162 3.625483 9.784000
121 1 1 0.000000 5.013550 5.800773 9.784000
122 1 1 0.000000 6.266938 7.976063 9.784000
123 1 1 0.000000 5.013550 1.450193 9.784000
124 1 1 0.000000 6.266938 3.625483 9.784000
125 1 1 0.000000 7.520325 5.800773 9.784000
126 1 1 0.000000 8.773713 7.976063 9.784000
127 1 1 0.000000 7.520325 1.450193 9.784000
128 1 1 0.000000 8.773713 3.625483 9.784000
129 1 1 0.000000 30.081300 17.402320 9.784000
130 1 1 0.000000 30.081300 13.051740 9.784000
131 1 1 0.000000 31.334688 15.227030 9.784000
132 1 1 0.000000 32.588075 17.402320 9.784000
133 1 1 0.000000 31.334688 10.876450 9.784000
134 1 1 0.000000 32.588075 13.051740 9.784000
135 1 1 0.000000 33.841462 15.227030 9.784000
136 1 1 0.000000 35.094850 17.402320 9.784000
137 1 1 0.000000 33.841462 10.876450 9.784000
138 1 1 0.000000 35.094850 13.051740 9.784000
139 1 1 0.000000 36.348238 15.227030 9.784000
140 1 1 0.000000 37.601625 17.402320 9.784000
141 1 1 0.000000 36.348238 10.876450 9.784000
142 1 1 0.000000 37.601625 13.051740 9.784000
143 1 1 0.000000 38.855013 15.227030 9.784000
144 1 1 0.000000 38.855013 10.876450 9.784000
145 1 1 0.000000 30.081300 14.501933 9.784000
146 1 1 0.000000 31.334688 16.677223 9.784000
147 1 1 0.000000 30.081300 10.151353 9.784000
148 1 1 0.000000 31.334688 12.326643 9.784000
149 1 1 0.000000 32.588075 14.501933 9.784000
150 1 1 0.000000 33.841462 16.677223 9.784000
151 1 1 0.000000 32.588075 10.151353 9.784000
152 1 1 0.000000 33.841462 12.326643 9.784000
153 1 1 0.000000 35.094850 14.501933 9.784000
154 1 1 0.000000 36.348238 16.677223 9.784000
155 1 1 0.000000 35.094850 10.151353 9.784000
156 1 1 0.000000 36.348238 12.326643 9.784000
157 1 1 0.000000 37.601625 14.501933 9.784000
158 1 1 0.000000 38.855013 16.677223 9.784000
159 1 1 0.000000 37.601625 10.151353 9.784000
160 1 1 0.000000 38.855013 12.326643 9.784000
161 1 1 0.000000 20.054200 17.402320 9.784000
162 1 1 0.000000 20.054200 13.051740 9.784000
163 1 1 0.000000 21.307588 15.227030 9.784000
164 1 1 0.000000 22.560975 17.402320 9.784000
165 1 1 0.000000 21.307588 10.876450 9.784000
166 1 1 0.000000 22.560975 13.051740 9.784000
167 1 1 0.000000 23.814363 15.227030 9.784000
168 1 1 0.000000 25.067750 17.402320 9.784000
169 1 1 0.000000 23.814363 10.876450 9.784000
170 1 1 0.000000 25.067750 13.051740 9.784000
171 1 1 0.000000 26.321137 15.227030 9.784000
172 1 1 0.000000 27.574525 17.402320 9.784000
173 1 1 0.000000 26.321137 10.876450 9.784000
174 1 1 0.000000 27.574525 13.051740 9.784000
175 1 1 0.000000 28.827913 15.227030 9.784000
176 1 1 0.000000 28.827913 10.876450 9.784000
177 1 1 0.000000 20.054200 14.501933 9.784000
178 1 1 0.000000 21.307588 16.677223 9.784000
179 1 1 0.000000 20.054200 10.151353 9.784000
180 1 1 0.000000 21.307588 12.326643 9.784000
181 1 1 0.000000 22.560975 14.501933 9.784000
182 1 1 0.000000 23.814363 16.677223 9.784000
183 1 1 0.000000 22.560975 10.151353 9.784000
184 1 1 0.000000 23.814363 12.326643 9.784000
185 1 1 0.000000 25.067750 14.501933 9.784000
186 1 1 0.000000 26.321137 16.677223 9.784000
187 1 1 0.000000 25.067750 10.151353 9.784000
188 1 1 0.000000 26.321137 12.326643 9.784000
189 1 1 0.000000 27.574525 14.501933 9.784000
190 1 1 0.000000 28.827913 16.677223 9.784000
191 1 1 0.000000 27.574525 10.151353 9.784000
192 1 1 0.000000 28.827913 12.326643 9.784000
193 1 1 0.000000 10.027100 17.402320 9.784000
194 1 1 0.000000 10.027100 13.051740 9.784000
195 1 1 0.000000 11.280487 15.227030 9.784000
196 1 1 0.000000 12.533875 17.402320 9.784000
197 1 1 0.000000 11.280487 10.876450 9.784000
198 1 1 0.000000 12.533875 13.051740 9.784000
199 1 1 0.000000 13.787263 15.227030 9.784000
200 1 1 0.000000 15.040650 17.402320 9.784000
201 1 1 0.000000 13.787263 10.876450 9.784000
202 1 1 0.000000 15.040650 13.051740 9.784000
203 1 1 0.000000 16.294038 15.227030 9.784000
204 1 1 0.000000 17.547425 17.402320 9.784000
205 1 1 0.000000 16.294038 10.876450 9.784000
206 1 1 0.000000 17.547425 13.051740 9.784000
207 1 1 0.000000 18.800812 15.227030 9.784000
208 1 1 0.000000 18.800812 10.876450 9.784000
209 1 1 0.000000 10.027100 14.501933 9.784000
210 1 1 0.000000 11.280487 16.677223 9.784000
211 1 1 0.000000 10.027100 10.151353 9.784000
212 1 1 0.000000 11.280487 12.326643 9.784000
213 1 1 0.000000 12.533875 14.501933 9.784000
214 1 1 0.000000 13.787263 16.677223 9.784000
215 1 1 0.000000 12.533875 10.151353 9.784000
216 1 1 0.000000 13.787263 12.326643 9.784000
217 1 1 0.000000 15.040650 14.501933 9.784000
218 1 1 0.000000 16.294038 16.677223 9.784000
219 1 1 0.000000 15.040650 10.151353 9.784000
220 1 1 0.000000 16.294038 12.326643 9.784000
221 1 1 0.000000 17.547425 14.501933 9.784000
222 1 1 0.000000 18.800812 16.677223 9.784000
223 1 1 0.000000 17.547425 10.151353 9.784000
224 1 1 0.000000 18.800812 12.326643 9.784000
225 1 1 0.000000 0.000000 17.402320 9.784000
226 1 1 0.000000 0.000000 13.051740 9.784000
227 1 1 0.000000 1.253388 15.227030 9.784000
228 1 1 0.000000 2.506775 17.402320 9.784000
229 1 1 0.000000 1.253388 10.876450 9.784000
230 1 1 0.000000 2.506775 13.051740 9.784000
231 1 1 0.000000 3.760162 15.227030 9.784000
232 1 1 0.000000 5.013550 17.402320 9.784000
233 1 1 0.000000 3.760162 10.876450 9.784000
234 1 1 0.000000 5.013550 13.051740 9.784000
235 1 1 0.000000 6.266938 15.227030 9.784000
236 1 1 0.000000 7.520325 17.402320 9.784000
237 1 1 0.000000 6.266938 10.876450 9.784000
238 1 1 0.000000 7.520325 13.051740 9.784000
239 1 1 0.000000 8.773713 15.227030 9.784000
240 1 1 0.000000 8.773713 10.876450 9.784000
241 1 1 0.000000 0.000000 14.501933 9.784000
242 1 1 0.000000 1.253388 16.677223 9.784000
243 1 1 0.000000 0.000000 10.151353 9.784000
244 1 1 0.000000 1.253388 12.326643 9.784000
245 1 1 0.000000 2.506775 14.501933 9.784000
246 1 1 0.000000 3.760162 16.677223 9.784000
247 1 1 0.000000 2.506775 10.151353 9.784000
248 1 1 0.000000 3.760162 12.326643 9.784000
249 1 1 0.000000 5.013550 14.501933 9.784000
250 1 1 0.000000 6.266938 16.677223 9.784000
251 1 1 0.000000 5.013550 10.151353 9.784000
252 1 1 0.000000 6.266938 12.326643 9.784000
253 1 1 0.000000 7.520325 14.501933 9.784000
254 1 1 0.000000 8.773713 16.677223 9.784000
255 1 1 0.000000 7.520325 10.151353 9.784000
256 1 1 0.000000 8.773713 12.326643 9.784000
257 1 1 0.000000 30.081300 26.103480 9.784000
258 1 1 0.000000 30.081300 21.752900 9.784000
259 1 1 0.000000 31.334688 23.928190 9.784000
260 1 1 0.000000 32.588075 26.103480 9.784000
261 1 1 0.000000 31.334688 19.577610 9.784000
262 1 1 0.000000 32.588075 21.752900 9.784000
263 1 1 0.000000 33.841462 23.928190 9.784000
264 1 1 0.000000 35.094850 26.103480 9.784000
265 1 1 0.000000 33.841462 19.577610 9.784000
266 1 1 0.000000 35.094850 21.752900 9.784000
267 1 1 0.000000 36.348238 23.928190 9.784000
268 1 1 0.000000 37.601625 26.103480 9.784000
269 1 1 0.000000 36.348238 19.577610 9.784000
270 1 1 0.000000 37.601625 21.752900 9.784000
271 1 1 0.000000 38.855013 23.928190 9.784000
272 1 1 0.000000 38.855013 19.577610 9.784000
273 1 1 0.000000 30.081300 23.203093 9.784000
274 1 1 0.000000 31.334688 25.378383 9.784000
275 1 1 0.000000 30.081300 18.852513 9.784000
276 1 1 0.000000 31.334688 21.027803 9.784000
277 1 1 0.000000 32.588075 23.203093 9.784000
278 1 1 0.000000 33.841462 25.378383 9.784000
279 1 1 0.000000 32.588075 18.852513 9.784000
280 1 1 0.000000 33.841462 21.027803 9.784000
281 1 1 0.000000 35.094850 23.203093 9.784000
282 1 1 0.000000 36.348238 25.378383 9.784000
283 1 1 0.000000 35.094850 18.852513 9.784000
284 1 1 0.000000 36.348238 21.027803 9.784000
285 1 1 0.000000 37.601625 23.203093 9.784000
286 1 1 0.000000 38.855013 25.378383 9.784000
287 1 1 0.000000 37.601625 18.852513 9.784000
288 1 1 0.000000 38.855013 21.027803 9.784000
289 1 1 0.000000 20.054200 26.103480 9.784000
290 1 1 0.000000 20.054200 21.752900 9.784000
291 1 1 0.000000 21.307588 23.928190 9.784000
292 1 1 0.000000 22.560975 26.103480 9.784000
293 1 1 0.000000 21.307588 19.577610 9.784000
294 1 1 0.000000 22.560975 21.752900 9.784000
295 1 1 0.000000 23.814363 23.928190 9.784000
296 1 1 0.000000 25.067750 26.103480 9.784000
297 1 1 0.000000 23.814363 19.577610 9.784000
298 1 1 0.000000 25.067750 21.752900 9.784000
299 1 1 0.000000 26.321137 23.928190 9.784000
300 1 1 0.000000 27.574525 26.103480 9.784000
301 1 1 0.000000 26.321137 19.577610 9.784000
302 1 1 0.000000 27.574525 21.752900 9.784000
303 1 1 0.000000 28.827913 23.928190 9.784000
304 1 1 0.000000 28.827913 19.577610 9.784000
305 1 1 0.000000 20.054200 23.203093 9.784000
306 1 1 0.000000 21.307588 25.378383 9.784000
307 1 1 0.000000 20.054200 18.852513 9.784000
308 1 1 0.000000 21.307588 21.027803 9.784000
309 1 1 0.000000 22.560975 23.203093 9.784000
310 1 1 0.000000 23.814363 25.378383 9.784000
311 1 1 0.000000 22.560975 18.852513 9.784000
312 1 1 0.000000 23.814363 21.027803 9.784000
313 1 1 0.000000 25.067750 23.203093 9.784000
314 1 1 0.000000 26.321137 25.378383 9.784000
315 1 1 0.000000 25.067750 18.852513 9.784000
316 1 1 0.000000 26.321137 21.027803 9.784000
317 1 1 0.000000 27.574525 23.203093 9.784000
318 1 1 0.000000 28.827913 25.378383 9.784000
319 1 1 0.000000 27.574525 18.852513 9.784000
320 1 1 0.000000 28.827913 21.027803 9.784000
321 1 1 0.000000 10.027100 26.103480 9.784000
322 1 1 0.000000 10.027100 21.752900 9.784000
323 1 1 0.000000 11.280487 23.928190 9.784000
324 1 1 0.000000 12.533875 26.103480 9.784000
325 1 1 0.000000 11.280487 19.577610 9.784000
326 1 1 0.000000 12.533875 21.752900 9.784000
327 1 1 0.000000 13.787263 23.928190 9.784000
328 1 1 0.000000 15.040650 26.103480 9.784000
329 1 1 0.000000 13.787263 19.577610 9.784000
330 1 1 0.000000 15.040650 21.752900 9.784000
331 1 1 0.000000 16.294038 23.928190 9.784000
332 1 1 0.000000 17.547425 26.103480 9.784000
333 1 1 0.000000 16.294038 19.577610 9.784000
334 1 1 0.000000 17.547425 21.752900 9.784000
335 1 1 0.000000 18.800812 23.928190 9.784000
336 1 1 0.000000 18.800812 19.577610 9.784000
337 1 1 0.000000 10.027100 23.203093 9.784000
338 1 1 0.000000 11.280487 25.378383 9.784000
339 1 1 0.000000 10.027100 18.852513 9.784000
340 1 1 0.000000 11.280487 21.027803 9.784000
341 1 1 0.000000 12.533875 23.203093 9.784000
342 1 1 0.000000 13.787263 25.378383 9.784000
343 1 1 0.000000 12.533875 18.852513 9.784000
344 1 1 0.000000 13.787263 21.027803 9.784000
345 1 1 0.000000 15.040650 23.203093 9.784000
346 1 1 0.000000 16.294038 25.378383 9.784000
347 1 1 0.000000 15.040650 18.852513 9.784000
348 1 1 0.000000 16.294038 21.027803 9.784000
349 1 1 0.000000 17.547425 23.203093 9.784000
350 1 1 0.000000 18.800812 25.378383 9.784000
351 1 1 0.000000 17.547425 18.852513 9.784000
352 1 1 0.000000 18.800812 21.027803 9.784000
353 1 1 0.000000 0.000000 26.103480 9.784000
354 1 1 0.000000 0.000000 21.752900 9.784000
355 1 1 0.000000 1.253388 23.928190 9.784000
356 1 1 0.000000 2.506775 26.103480 9.784000
357 1 1 0.000000 1.253388 19.577610 9.784000
358 1 1 0.000000 2.506775 21.752900 9.784000
359 1 1 0.000000 3.760162 23.928190 9.784000
360 1 1 0.000000 5.013550 26.103480 9.784000
361 1 1 0.000000 3.760162 19.577610 9.784000
362 1 1 0.000000 5.013550 21.752900 9.784000
363 1 1 0.000000 6.266938 23.928190 9.784000
364 1 1 0.000000 7.520325 26.103480 9.784000
365 1 1 0.000000 6.266938 19.577610 9.784000
366 1 1 0.000000 7.520325 21.752900 9.784000
367 1 1 0.000000 8.773713 23.928190 9.784000
368 1 1 0.000000 8.773713 19.577610 9.784000
369 1 1 0.000000 0.000000 23.203093 9.784000
370 1 1 0.000000 1.253388 25.378383 9.784000
371 1 1 0.000000 0.000000 18.852513 9.784000
372 1 1 0.000000 1.253388 21.027803 9.784000
373 1 1 0.000000 2.506775 23.203093 9.784000
374 1 1 0.000000 3.760162 25.378383 9.784000
375 1 1 0.000000 2.506775 18.852513 9.784000
376 1 1 0.000000 3.760162 21.027803 9.784000
377 1 1 0.000000 5.013550 23.203093 9.784000
378 1 1 0.000000 6.266938 25.378383 9.784000
379 1 1 0.000000 5.013550 18.852513 9.784000
380 1 1 0.000000 6.266938 21.027803 9.784000
381 1 1 0.000000 7.520325 23.203093 9.784000
382 1 1 0.000000 8.773713 25.378383 9.784000
383 1 1 0.000000 7.520325 18.852513 9.784000
384 1 1 0.000000 8.773713 21.027803 9.784000
385 1 1 0.000000 30.081300 34.804640 9.784000
386 1 1 0.000000 30.081300 30.454060 9.784000
387 1 1 0.000000 31.334688 32.629350 9.784000
388 1 1 0.000000 32.588075 34.804640 9.784000
389 1 1 0.000000 31.334688 28.278770 9.784000
390 1 1 0.000000 32.588075 30.454060 9.784000
391 1 1 0.000000 33.841462 32.629350 9.784000
392 1 1 0.000000 35.094850 34.804640 9.784000
393 1 1 0.000000 33.841462 28.278770 9.784000
394 1 1 0.000000 35.094850 30.454060 9.784000
395 1 1 0.000000 36.348238 32.629350 9.784000
396 1 1 0.000000 37.601625 34.804640 9.784000
397 1 1 0.000000 36.348238 28.278770 9.784000
398 1 1 0.000000 37.601625 30.454060 9.784000
399 1 1 0.000000 38.855013 32.629350 9.784000
400 1 1 0.000000 38.855013 28.278770 9.784000
401 1 1 0.000000 30.081300 31.904253 9.784000
402 1 1 0.000000 31.334688 34.079543 9.784000
403 1 1 0.000000 30.081300 27.553673 9.784000
404 1 1 0.000000 31.334688 29.728963 9.784000
405 1 1 0.000000 32.588075 31.904253 9.784000
406 1 1 0.000000 33.841462 34.079543 9.784000
407 1 1 0.000000 32.588075 27.553673 9.784000
408 1 1 0.000000 33.841462 29.728963 9.784000
409 1 1 0.000000 35.094850 31.904253 9.784000
410 1 1 0.000000 36.348238 34.079543 9.784000
411 1 1 0.000000 35.094850 27.553673 9.784000
412 1 1 0.000000 36.348238 29.728963 9.784000
413 1 1 0.000000 37.601625 31.904253 9.784000
414 1 1 0.000000 38.855013 34.079543 9.784000
415 1 1 0.000000 37.601625 27.553673 9.784000
416 1 1 0.000000 38.855013 29.728963 9.784000
417 1 1 0.000000 20.054200 34.804640 9.784000
418 1 1 0.000000 20.054200 30.454060 9.784000
419 1 1 0.000000 21.307588 32.629350 9.784000
420 1 1 0.000000 22.560975 34.804640 9.784000
421 1 1 0.000000 21.307588 28.278770 9.784000
422 1 1 0.000000 22.560975 30.454060 9.784000
423 1 1 0.000000 23.814363 32.629350 9.784000
424 1 1 0.000000 25.067750 34.804640 9.784000
425 1 1 0.000000 23.814363 28.278770 9.784000
426 1 1 0.000000 25.067750 30.454060 9.784000
427 1 1 0.000000 26.321137 32.629350 9.784000
428 1 1 0.000000 27.574525 34.804640 9.784000
429 1 1 0.000000 26.321137 28.278770 9.784000
430 1 1 0.000000 27.574525 30.454060 9.784000
431 1 1 0.000000 28.827913 32.629350 9.784000
432 1 1 0.000000 28.827913 28.278770 9.784000
433 1 1 0.000000 20.054200 31.904253 9.784000
434 1 1 0.000000 21.307588 34.079543 9.784000
435 1 1 0.000000 20.054200 27.553673 9.784000
436 1 1 0.000000 21.307588 29.728963 9.784000
437 1 1 0.000000 22.560975 31.904253 9.784000
438 1 1 0.000000 23.814363 34.079543 9.784000
439 1 1 0.000000 22.560975 27.553673 9.784000
440 1 1 0.000000 23.814363 29.728963 9.784000
441 1 1 0.000000 25.067750 31.904253 9.784000
442 1 1 0.000000 26.321137 34.079543 9.784000
443 1 1 0.000000 25.067750 27.553673 9.784000
444 1 1 0.000000 26.321137 29.728963 9.784000
445 1 1 0.000000 27.574525 31.904253 9.784000
446 1 1 0.000000 28.827913 34.079543 9.784000
447 1 1 0.000000 27.574525 27.553673 9.784000
448 1 1 0.000000 28.827913 29.728963 9.784000
449 1 1 0.000000 10.027100 34.804640 9.784000
450 1 1 0.000000 10.027100 30.454060 9.784000
451 1 1 0.000000 11.280487 32.629350 9.784000
452 1 1 0.000000 12.533875 34.804640 9.784000
453 1 1 0.000000 11.280487 28.278770 9.784000
454 1 1 0.000000 12.533875 30.454060 9.784000
455 1 1 0.000000 13.787263 32.629350 9.784000
456 1 1 0.000000 15.040650 34.804640 9.784000
457 1 1 0.000000 13.787263 28.278770 9.784000
458 1 1 0.000000 15.040650 30.454060 9.784000
459 1 1 0.000000 16.294038 32.629350 9.784000
460 1 1 0.000000 17.547425 34.804640 9.784000
461 1 1 0.000000 16.294038 28.278770 9.784000
462 1 1 0.000000 17.547425 30.454060 9.784000
463 1 1 0.000000 18.800812 32.629350 9.784000
464 1 1 0.000000 18.800812 28.278770 9.784000
465 1 1 0.000000 10.027100 31.904253 9.784000
466 1 1 0.000000 11.280487 34.079543 9.784000
467 1 1 0.000000 10.027100 27.553673 9.784000
468 1 1 0.000000 11.280487 29.728963 9.784000
469 1 1 0.000000 12.533875 31.904253 9.784000
470 1 1 0.000000 13.787263 34.079543 9.784000
471 1 1 0.000000 12.533875 27.553673 9.784000
472 1 1 0.000000 13.787263 29.728963 9.784000
473 1 1 0.000000 15.040650 31.904253 9.784000
474 1 1 0.000000 16.294038 34.079543 9.784000
475 1 1 0.000000 15.040650 27.553673 9.784000
476 1 1 0.000000 16.294038 29.728963 9.784000
477 1 1 0.000000 17.547425 31.904253 9.784000
478 1 1 0.000000 18.800812 34.079543 9.784000
479 1 1 0.000000 17.547425 27.553673 9.784000
480 1 1 0.000000 18.800812 29.728963 9.784000
481 1 1 0.000000 0.000000 34.804640 9.784000
482 1 1 0.000000 0.000000 30.454060 9.784000
483 1 1 0.000000 1.253388 32.629350 9.784000
484 1 1 0.000000 2.506775 34.804640 9.784000
485 1 1 0.000000 1.253388 28.278770 9.784000
486 1 1 0.000000 2.506775 30.454060 9.784000
487 1 1 0.000000 3.760162 32.629350 9.784000
488 1 1 0.000000 5.013550 34.804640 9.784000
489 1 1 0.000000 3.760162 28.278770 9.784000
490 1 1 0.000000 5.013550 30.454060 9.784000
491 1 1 0.000000 6.266938 32.629350 9.784000
492 1 1 0.000000 7.520325 34.804640 9.784000
493 1 1 0.000000 6.266938 28.278770 9.784000
494 1 1 0.000000 7.520325 30.454060 9.784000
495 1 1 0.000000 8.773713 32.629350 9.784000
496 1 1 0.000000 8.773713 28.278770 9.784000
497 1 1 0.000000 0.000000 31.904253 9.784000
498 1 1 0.000000 1.253388 34.079543 9.784000
499 1 1 0.000000 0.000000 27.553673 9.784000
500 1 1 0.000000 1.253388 29.728963 9.784000
501 1 1 0.000000 2.506775 31.904253 9.784000
502 1 1 0.000000 3.760162 34.079543 9.784000
503 1 1 0.000000 2.506775 27.553673 9.784000
504 1 1 0.000000 3.760162 29.728963 9.784000
505 1 1 0.000000 5.013550 31.904253 9.784000
506 1 1 0.000000 6.266938 34.079543 9.784000
507 1 1 0.000000 5.013550 27.553673 9.784000
508 1 1 0.000000 6.266938 29.728963 9.784000
509 1 1 0.000000 7.520325 31.904253 9.784000
510 1 1 0.000000 8.773713 34.079543 9.784000
511 1 1 0.000000 7.520325 27.553673 9.784000
512 1 1 0.000000 8.773713 29.728963 9.784000

Bonds

1 1 1 18
2 1 1 62
3 1 1 147
4 1 2 17
5 1 2 20
6 1 2 64
7 1 3 17
8 1 3 18
9 1 3 21
10 1 4 18
11 1 4 22
12 1 4 151
13 1 5 19
14 1 5 20
15 1 5 23
16 1 6 20
17 1 6 21
18 1 6 24
19 1 7 21
20 1 7 22
21 1 7 25
22 1 8 22
23 1 8 26
24 1 8 155
25 1 9 23
26 1 9 24
27 1 9 27
28 1 10 24
29 1 10 25
30 1 10 28
31 1 11 25
32 1 11 26
33 1 11 29
34 1 12 26
35 1 12 30
36 1 12 159
37 1 13 27
38 1 13 28
39 1 13 31
40 1 14 28
41 1 14 29
42 1 14 32
43 1 15 29
44 1 15 30
45 1 15 113
46 1 16 31
47 1 16 32
48 1 16 115
49 1 17 47
50 1 19 48
51 1 19 385
52 1 23 388
53 1 27 392
54 1 30 97
55 1 31 396
56 1 32 98
57 1 33 50
58 1 33 94
59 1 33 179
60 1 34 49
61 1 34 52
62 1 34 96
63 1 35 49
64 1 35 50
65 1 35 53
66 1 36 50
67 1 36 54
68 1 36 183
69 1 37 51
70 1 37 52
71 1 37 55
72 1 38 52
73 1 38 53
74 1 38 56
75 1 39 53
76 1 39 54
77 1 39 57
78 1 40 54
79 1 40 58
80 1 40 187
81 1 41 55
82 1 41 56
83 1 41 59
84 1 42 56
85 1 42 57
86 1 42 60
87 1 43 57
88 1 43 58
89 1 43 61
90 1 44 58
91 1 44 62
92 1 44 191
93 1 45 59
94 1 45 60
95 1 45 63
96 1 46 60
97 1 46 61
98 1 46 64
99 1 47 61
100 1 47 62
101 1 48 63
102 1 48 64
103 1 49 79
104 1 51 80
105 1 51 417
106 1 55 420
107 1 59 424
108 1 63 428
109 1 65 82
110 1 65 126
111 1 65 211
112 1 66 81
113 1 66 84
114 1 66 128
115 1 67 81
116 1 67 82
117 1 67 85
118 1 68 82
119 1 68 86
120 1 68 215
121 1 69 83
122 1 69 84
123 1 69 87
124 1 70 84
125 1 70 85
126 1 70 88
127 1 71 85
128 1 71 86
129 1 71 89
130 1 72 86
131 1 72 90
132 1 72 219
133 1 73 87
134 1 73 88
135 1 73 91
136 1 74 88
137 1 74 89
138 1 74 92
139 1 75 89
140 1 75 90
141 1 75 93
142 1 76 90
143 1 76 94
144 1 76 223
145 1 77 91
146 1 77 92
147 1 77 95
148 1 78 92
149 1 78 93
150 1 78 96
151 1 79 93
152 1 79 94
153 1 80 95
154 1 80 96
155 1 81 111
156 1 83 112
157 1 83 449
158 1 87 452
159 1 91 456
160 1 95 460
161 1 97 114
162 1 97 243
163 1 98 113
164 1 98 116
165 1 99 113
166 1 99 114
167 1 99 117
168 1 100 114
169 1 100 118
170 1 100 247
171 1 101 115
172 1 101 116
173 1 101 119
174 1 102 116
175 1 102 117
176 1 102 120
177 1 103 117
178 1 103 118
179 1 103 121
180 1 104 118
181 1 104 122
182 1 104 251
183 1 105 119
184 1 105 120
185 1 105 123
186 1 106 120
187 1 106 121
188 1 106 124
189 1 107 121
190 1 107 122
191 1 107 125
192 1 108 122
193 1 108 126
194 1 108 255
195 1 109 123
196 1 109 124
197 1 109 127
198 1 110 124
199 1 110 125
200 1 110 128
201 1 111 125
202 1 111 126
203 1 112 127
204 1 112 128
205 1 115 481
206 1 119 484
207 1 123 488
208 1 127 492
209 1 129 146
210 1 129 190
211 1 129 275
212 1 130 145
213 1 130 148
214 1 130 192
215 1 131 145
216 1 131 146
217 1 131 149
218 1 132 146
219 1 132 150
220 1 132 279
221 1 133 147
222 1 133 148
223 1 133 151
224 1 134 148
225 1 134 149
226 1 134 152
227 1 135 149
228 1 135 150
229 1 135 153
230 1 136 150
231 1 136 154
232 1 136 283
233 1 137 151
234 1 137 152
235 1 137 155
236 1 138 152
237 1 138 153
238 1 138 156
239 1 139 153
240 1 139 154
241 1 139 157
242 1 140 154
243 1 140 158
244 1 140 287
245 1 141 155
246 1 141 156
247 1 141 159
248 1 142 156
249 1 142 157
250 1 142 160
251 1 143 157
252 1 143 158
253 1 143 241
254 1 144 159
255 1 144 160
256 1 144 243
257 1 145 175
258 1 147 176
259 1 158 225
260 1 160 226
261 1 161 178
262 1 161 222
263 1 161 307
264 1 162 177
265 1 162 180
266 1 162 224
267 1 163 177
268 1 163 178
269 1 163 181
270 1 164 178
271 1 164 182
272 1 164 311
273 1 165 179
274 1 165 180
275 1 165 183
276 1 166 180
277 1 166 181
278 1 166 184
279 1 167 181
280 1 167 182
281 1 167 185
282 1 168 182
283 1 168 186
284 1 168 315
285 1 169 183
286 1 169 184
287 1 169 187
288 1 170 184
289 1 170 185
290 1 170 188
291 1 171 185
292 1 171 186
293 1 171 189
294 1 172 186
295 1 172 190
296 1 172 319
297 1 173 187
298 1 173 188
299 1 173 191
300 1 174 188
301 1 174 189
302 1 174 192
303 1 175 189
304 1 175 190
305 1 176 191
306 1 176 192
307 1 177 207
308 1 179 208
309 1 193 210
310 1 193 254
311 1 193 339
312 1 194 209
313 1 194 212
314 1 194 256
315 1 195 209
316 1 195 210
317 1 195 213
318 1 196 210
319 1 196 214
320 1 196 343
321 1 197 211
322 1 197 212
323 1 197 215
324 1 198 212
325 1 198 213
326 1 198 216
327 1 199 213
328 1 199 214
329 1 199 217
330 1 200 214
331 1 200 218
332 1 200 347
333 1 201 215
334 1 201 216
335 1 201 219
336 1 202 216
337 1 202 217
338 1 202 220
339 1 203 217
340 1 203 218
341 1 203 221
342 1 204 218
343 1 204 222
344 1 204 351
345 1 205 219
346 1 205 220
347 1 205 223
348 1 206 220
349 1 206 221
350 1 206 224
351 1 207 221
352 1 207 222
353 1 208 223
354 1 208 224
355 1 209 239
356 1 211 240
357 1 225 242
358 1 225 371
359 1 226 241
360 1 226 244
361 1 227 241
362 1 227 242
363 1 227 245
364 1 228 242
365 1 228 246
366 1 228 375
367 1 229 243
368 1 229 244
369 1 229 247
370 1 230 244
371 1 230 245
372 1 230 248
373 1 231 245
374 1 231 246
375 1 231 249
376 1 232 246
377 1 232 250
378 1 232 379
379 1 233 247
380 1 233 248
381 1 233 251
382 1 234 248
383 1 234 249
384 1 234 252
385 1 235 249
386 1 235 250
387 1 235 253
388 1 236 250
389 1 236 254
390 1 236 383
391 1 237 251
392 1 237 252
393 1 237 255
394 1 238 252
395 1 238 253
396 1 238 256
397 1 239 253
398 1 239 254
399 1 240 255
400 1 240 256
401 1 257 274
402 1 257 318
403 1 257 403
404 1 258 273
405 1 258 276
406 1 258 320
407 1 259 273
408 1 259 274
409 1 259 277
410 1 260 274
411 1 260 278
412 1 260 407
413 1 261 275
414 1 261 276
415 1 261 279
416 1 262 276
417 1 262 277
418 1 262 280
419 1 263 277
420 1 263 278
421 1 263 281
422 1 264 278
423 1 264 282
424 1 264 411
425 1 265 279
426 1 265 280
427 1 265 283
428 1 266 280
429 1 266 281
430 1 266 284
431 1 267 281
432 1 267 282
433 1 267 285
434 1 268 282