# LAMMPS data file

2048 atoms
3072 bonds
6144 angles
12288 dihedrals
2048 impropers

0.0 40.108 xlo xhi
0.0 34.805 ylo yhi
0.0 54.62494 zlo zhi

Masses

1 12.0107  # C

Atoms  # full

1 1 1 0.0 30.0813 8.70116 9.784
2 1 1 0.0 30.0813 4.35058 9.784
3 1 1 0.0 31.334688 6.52587 9.784
4 1 1 0.0 32.588075 8.70116 9.784
5 1 1 0.0 31.334688 2.17529 9.784
6 1 1 0.0 32.588075 4.35058 9.784
7 1 1 0.0 33.841462 6.52587 9.784
8 1 1 0.0 35.09485 8.70116 9.784
9 1 1 0.0 33.841462 2.17529 9.784
10 1 1 0.0 35.09485 4.35058 9.784
11 1 1 0.0 36.348238 6.52587 9.784
12 1 1 0.0 37.601625 8.70116 9.784
13 1 1 0.0 36.348238 2.17529 9.784
14 1 1 0.0 37.601625 4.35058 9.784
15 1 1 0.0 38.855013 6.52587 9.784
16 1 1 0.0 38.855013 2.17529 9.784
17 1 1 0.0 30.0813 5.800773 9.784
18 1 1 0.0 31.334688 7.976063 9.784
19 1 1 0.0 30.0813 1.450193 9.784
20 1 1 0.0 31.334688 3.625483 9.784
21 1 1 0.0 32.588075 5.800773 9.784
22 1 1 0.0 33.841462 7.976063 9.784
23 1 1 0.0 32.588075 1.450193 9.784
24 1 1 0.0 33.841462 3.625483 9.784
25 1 1 0.0 35.09485 5.800773 9.784
26 1 1 0.0 36.348238 7.976063 9.784
27 1 1 0.0 35.09485 1.450193 9.784
28 1 1 0.0 36.348238 3.625483 9.784
29 1 1 0.0 37.601625 5.800773 9.784
30 1 1 0.0 38.855013 7.976063 9.784
31 1 1 0.0 37.601625 1.450193 9.784
32 1 1 0.0 38.855013 3.625483 9.784
33 1 1 0.0 20.0542 8.70116 9.784
34 1 1 0.0 20.0542 4.35058 9.784
35 1 1 0.0 21.307588 6.52587 9.784
36 1 1 0.0 22.560975 8.70116 9.784
37 1 1 0.0 21.307588 2.17529 9.784
38 1 1 0.0 22.560975 4.35058 9.784
39 1 1 0.0 23.814363 6.52587 9.784
40 1 1 0.0 25.06775 8.70116 9.784
41 1 1 0.0 23.814363 2.17529 9.784
42 1 1 0.0 25.06775 4.35058 9.784
43 1 1 0.0 26.321137 6.52587 9.784
44 1 1 0.0 27.574525 8.70116 9.784
45 1 1 0.0 26.321137 2.17529 9.784
46 1 1 0.0 27.574525 4.35058 9.784
47 1 1 0.0 28.827913 6.52587 9.784
48 1 1 0.0 28.827913 2.17529 9.784
49 1 1 0.0 20.0542 5.800773 9.784
50 1 1 0.0 21.307588 7.976063 9.784
51 1 1 0.0 20.0542 1.450193 9.784
52 1 1 0.0 21.307588 3.625483 9.784
53 1 1 0.0 22.560975 5.800773 9.784
54 1 1 0.0 23.814363 7.976063 9.784
55 1 1 0.0 22.560975 1.450193 9.784
56 1 1 0.0 23.814363 3.625483 9.784
57 1 1 0.0 25.06775 5.800773 9.784
58 1 1 0.0 26.321137 7.976063 9.784
59 1 1 0.0 25.06775 1.450193 9.784
60 1 1 0.0 26.321137 3.625483 9.784
61 1 1 0.0 27.574525 5.800773 9.784
62 1 1 0.0 28.827913 7.976063 9.784
63 1 1 0.0 27.574525 1.450193 9.784
64 1 1 0.0 28.827913 3.625483 9.784
65 1 1 0.0 10.0271 8.70116 9.784
66 1 1 0.0 10.0271 4.35058 9.784
67 1 1 0.0 11.280487 6.52587 9.784
68 1 1 0.0 12.533875 8.70116 9.784
69 1 1 0.0 11.280487 2.17529 9.784
70 1 1 0.0 12.533875 4.35058 9.784
71 1 1 0.0 13.787263 6.52587 9.784
72 1 1 0.0 15.04065 8.70116 9.784
73 1 1 0.0 13.787263 2.17529 9.784
74 1 1 0.0 15.04065 4.35058 9.784
75 1 1 0.0 16.294038 6.52587 9.784
76 1 1 0.0 17.547425 8.70116 9.784
77 1 1 0.0 16.294038 2.17529 9.784
78 1 1 0.0 17.547425 4.35058 9.784
79 1 1 0.0 18.800812 6.52587 9.784
80 1 1 0.0 18.800812 2.17529 9.784
81 1 1 0.0 10.0271 5.800773 9.784
82 1 1 0.0 11.280487 7.976063 9.784
83 1 1 0.0 10.0271 1.450193 9.784
84 1 1 0.0 11.280487 3.625483 9.784
85 1 1 0.0 12.533875 5.800773 9.784
86 1 1 0.0 13.787263 7.976063 9.784
87 1 1 0.0 12.533875 1.450193 9.784
88 1 1 0.0 13.787263 3.625483 9.784
89 1 1 0.0 15.04065 5.800773 9.784
90 1 1 0.0 16.294038 7.976063 9.784
91 1 1 0.0 15.04065 1.450193 9.784
92 1 1 0.0 16.294038 3.625483 9.784
93 1 1 0.0 17.547425 5.800773 9.784
94 1 1 0.0 18.800812 7.976063 9.784
95 1 1 0.0 17.547425 1.450193 9.784
96 1 1 0.0 18.800812 3.625483 9.784
97 1 1 0.0 0.0 8.70116 9.784
98 1 1 0.0 0.0 4.35058 9.784
99 1 1 0.0 1.253388 6.52587 9.784
100 1 1 0.0 2.506775 8.70116 9.784
101 1 1 0.0 1.253388 2.17529 9.784
102 1 1 0.0 2.506775 4.35058 9.784
103 1 1 0.0 3.760162 6.52587 9.784
104 1 1 0.0 5.01355 8.70116 9.784
105 1 1 0.0 3.760162 2.17529 9.784
106 1 1 0.0 5.01355 4.35058 9.784
107 1 1 0.0 6.266938 6.52587 9.784
108 1 1 0.0 7.520325 8.70116 9.784
109 1 1 0.0 6.266938 2.17529 9.784
110 1 1 0.0 7.520325 4.35058 9.784
111 1 1 0.0 8.773713 6.52587 9.784
112 1 1 0.0 8.773713 2.17529 9.784
113 1 1 0.0 0.0 5.800773 9.784
114 1 1 0.0 1.253388 7.976063 9.784
115 1 1 0.0 0.0 1.450193 9.784
116 1 1 0.0 1.253388 3.625483 9.784
117 1 1 0.0 2.506775 5.800773 9.784
118 1 1 0.0 3.760162 7.976063 9.784
119 1 1 0.0 2.506775 1.450193 9.784
120 1 1 0.0 3.760162 3.625483 9.784
121 1 1 0.0 5.01355 5.800773 9.784
122 1 1 0.0 6.266938 7.976063 9.784
123 1 1 0.0 5.01355 1.450193 9.784
124 1 1 0.0 6.266938 3.625483 9.784
125 1 1 0.0 7.520325 5.800773 9.784
126 1 1 0.0 8.773713 7.976063 9.784
127 1 1 0.0 7.520325 1.450193 9.784
128 1 1 0.0 8.773713 3.625483 9.784
129 1 1 0.0 30.0813 17.40232 9.784
130 1 1 0.0 30.0813 13.05174 9.784
131 1 1 0.0 31.334688 15.22703 9.784
132 1 1 0.0 32.588075 17.40232 9.784
133 1 1 0.0 31.334688 10.87645 9.784
134 1 1 0.0 32.588075 13.05174 9.784
135 1 1 0.0 33.841462 15.22703 9.784
136 1 1 0.0 35.09485 17.40232 9.784
137 1 1 0.0 33.841462 10.87645 9.784
138 1 1 0.0 35.09485 13.05174 9.784
139 1 1 0.0 36.348238 15.22703 9.784
140 1 1 0.0 37.601625 17.40232 9.784
141 1 1 0.0 36.348238 10.87645 9.784
142 1 1 0.0 37.601625 13.05174 9.784
143 1 1 0.0 38.855013 15.22703 9.784
144 1 1 0.0 38.855013 10.87645 9.784
145 1 1 0.0 30.0813 14.501933 9.784
146 1 1 0.0 31.334688 16.677223 9.784
147 1 1 0.0 30.0813 10.151353 9.784
148 1 1 0.0 31.334688 12.326643 9.784
149 1 1 0.0 32.588075 14.501933 9.784
150 1 1 0.0 33.841462 16.677223 9.784
151 1 1 0.0 32.588075 10.151353 9.784
152 1 1 0.0 33.841462 12.326643 9.784
153 1 1 0.0 35.09485 14.501933 9.784
154 1 1 0.0 36.348238 16.677223 9.784
155 1 1 0.0 35.09485 10.151353 9.784
156 1 1 0.0 36.348238 12.326643 9.784
157 1 1 0.0 37.601625 14.501933 9.784
158 1 1 0.0 38.855013 16.677223 9.784
159 1 1 0.0 37.601625 10.151353 9.784
160 1 1 0.0 38.855013 12.326643 9.784
161 1 1 0.0 20.0542 17.40232 9.784
162 1 1 0.0 20.0542 13.05174 9.784
163 1 1 0.0 21.307588 15.22703 9.784
164 1 1 0.0 22.560975 17.40232 9.784
165 1 1 0.0 21.307588 10.87645 9.784
166 1 1 0.0 22.560975 13.05174 9.784
167 1 1 0.0 23.814363 15.22703 9.784
168 1 1 0.0 25.06775 17.40232 9.784
169 1 1 0.0 23.814363 10.87645 9.784
170 1 1 0.0 25.06775 13.05174 9.784
171 1 1 0.0 26.321137 15.22703 9.784
172 1 1 0.0 27.574525 17.40232 9.784
173 1 1 0.0 26.321137 10.87645 9.784
174 1 1 0.0 27.574525 13.05174 9.784
175 1 1 0.0 28.827913 15.22703 9.784
176 1 1 0.0 28.827913 10.87645 9.784
177 1 1 0.0 20.0542 14.501933 9.784
178 1 1 0.0 21.307588 16.677223 9.784
179 1 1 0.0 20.0542 10.151353 9.784
180 1 1 0.0 21.307588 12.326643 9.784
181 1 1 0.0 22.560975 14.501933 9.784
182 1 1 0.0 23.814363 16.677223 9.784
183 1 1 0.0 22.560975 10.151353 9.784
184 1 1 0.0 23.814363 12.326643 9.784
185 1 1 0.0 25.06775 14.501933 9.784
186 1 1 0.0 26.321137 16.677223 9.784
187 1 1 0.0 25.06775 10.151353 9.784
188 1 1 0.0 26.321137 12.326643 9.784
189 1 1 0.0 27.574525 14.501933 9.784
190 1 1 0.0 28.827913 16.677223 9.784
191 1 1 0.0 27.574525 10.151353 9.784
192 1 1 0.0 28.827913 12.326643 9.784
193 1 1 0.0 10.0271 17.40232 9.784
194 1 1 0.0 10.0271 13.05174 9.784
195 1 1 0.0 11.280487 15.22703 9.784
196 1 1 0.0 12.533875 17.40232 9.784
197 1 1 0.0 11.280487 10.87645 9.784
198 1 1 0.0 12.533875 13.05174 9.784
199 1 1 0.0 13.787263 15.22703 9.784
200 1 1 0.0 15.04065 17.40232 9.784
201 1 1 0.0 13.787263 10.87645 9.784
202 1 1 0.0 15.04065 13.05174 9.784
203 1 1 0.0 16.294038 15.22703 9.784
204 1 1 0.0 17.547425 17.40232 9.784
205 1 1 0.0 16.294038 10.87645 9.784
206 1 1 0.0 17.547425 13.05174 9.784
207 1 1 0.0 18.800812 15.22703 9.784
208 1 1 0.0 18.800812 10.87645 9.784
209 1 1 0.0 10.0271 14.501933 9.784
210 1 1 0.0 11.280487 16.677223 9.784
211 1 1 0.0 10.0271 10.151353 9.784
212 1 1 0.0 11.280487 12.326643 9.784
213 1 1 0.0 12.533875 14.501933 9.784
214 1 1 0.0 13.787263 16.677223 9.784
215 1 1 0.0 12.533875 10.151353 9.784
216 1 1 0.0 13.787263 12.326643 9.784
217 1 1 0.0 15.04065 14.501933 9.784
218 1 1 0.0 16.294038 16.677223 9.784
219 1 1 0.0 15.04065 10.151353 9.784
220 1 1 0.0 16.294038 12.326643 9.784
221 1 1 0.0 17.547425 14.501933 9.784
222 1 1 0.0 18.800812 16.677223 9.784
223 1 1 0.0 17.547425 10.151353 9.784
224 1 1 0.0 18.800812 12.326643 9.784
225 1 1 0.0 0.0 17.40232 9.784
226 1 1 0.0 0.0 13.05174 9.784
227 1 1 0.0 1.253388 15.22703 9.784
228 1 1 0.0 2.506775 17.40232 9.784
229 1 1 0.0 1.253388 10.87645 9.784
230 1 1 0.0 2.506775 13.05174 9.784
231 1 1 0.0 3.760162 15.22703 9.784
232 1 1 0.0 5.01355 17.40232 9.784
233 1 1 0.0 3.760162 10.87645 9.784
234 1 1 0.0 5.01355 13.05174 9.784
235 1 1 0.0 6.266938 15.22703 9.784
236 1 1 0.0 7.520325 17.40232 9.784
237 1 1 0.0 6.266938 10.87645 9.784
238 1 1 0.0 7.520325 13.05174 9.784
239 1 1 0.0 8.773713 15.22703 9.784
240 1 1 0.0 8.773713 10.87645 9.784
241 1 1 0.0 0.0 14.501933 9.784
242 1 1 0.0 1.253388 16.677223 9.784
243 1 1 0.0 0.0 10.151353 9.784
244 1 1 0.0 1.253388 12.326643 9.784
245 1 1 0.0 2.506775 14.501933 9.784
246 1 1 0.0 3.760162 16.677223 9.784
247 1 1 0.0 2.506775 10.151353 9.784
248 1 1 0.0 3.760162 12.326643 9.784
249 1 1 0.0 5.01355 14.501933 9.784
250 1 1 0.0 6.266938 16.677223 9.784
251 1 1 0.0 5.01355 10.151353 9.784
252 1 1 0.0 6.266938 12.326643 9.784
253 1 1 0.0 7.520325 14.501933 9.784
254 1 1 0.0 8.773713 16.677223 9.784
255 1 1 0.0 7.520325 10.151353 9.784
256 1 1 0.0 8.773713 12.326643 9.784
257 1 1 0.0 30.0813 26.10348 9.784
258 1 1 0.0 30.0813 21.7529 9.784
259 1 1 0.0 31.334688 23.92819 9.784
260 1 1 0.0 32.588075 26.10348 9.784
261 1 1 0.0 31.334688 19.57761 9.784
262 1 1 0.0 32.588075 21.7529 9.784
263 1 1 0.0 33.841462 23.92819 9.784
264 1 1 0.0 35.09485 26.10348 9.784
265 1 1 0.0 33.841462 19.57761 9.784
266 1 1 0.0 35.09485 21.7529 9.784
267 1 1 0.0 36.348238 23.92819 9.784
268 1 1 0.0 37.601625 26.10348 9.784
269 1 1 0.0 36.348238 19.57761 9.784
270 1 1 0.0 37.601625 21.7529 9.784
271 1 1 0.0 38.855013 23.92819 9.784
272 1 1 0.0 38.855013 19.57761 9.784
273 1 1 0.0 30.0813 23.203093 9.784
274 1 1 0.0 31.334688 25.378383 9.784
275 1 1 0.0 30.0813 18.852513 9.784
276 1 1 0.0 31.334688 21.027803 9.784
277 1 1 0.0 32.588075 23.203093 9.784
278 1 1 0.0 33.841462 25.378383 9.784
279 1 1 0.0 32.588075 18.852513 9.784
280 1 1 0.0 33.841462 21.027803 9.784
281 1 1 0.0 35.09485 23.203093 9.784
282 1 1 0.0 36.348238 25.378383 9.784
283 1 1 0.0 35.09485 18.852513 9.784
284 1 1 0.0 36.348238 21.027803 9.784
285 1 1 0.0 37.601625 23.203093 9.784
286 1 1 0.0 38.855013 25.378383 9.784
287 1 1 0.0 37.601625 18.852513 9.784
288 1 1 0.0 38.855013 21.027803 9.784
289 1 1 0.0 20.0542 26.10348 9.784
290 1 1 0.0 20.0542 21.7529 9.784
291 1 1 0.0 21.307588 23.92819 9.784
292 1 1 0.0 22.560975 26.10348 9.784
293 1 1 0.0 21.307588 19.57761 9.784
294 1 1 0.0 22.560975 21.7529 9.784
295 1 1 0.0 23.814363 23.92819 9.784
296 1 1 0.0 25.06775 26.10348 9.784
297 1 1 0.0 23.814363 19.57761 9.784
298 1 1 0.0 25.06775 21.7529 9.784
299 1 1 0.0 26.321137 23.92819 9.784
300 1 1 0.0 27.574525 26.10348 9.784
301 1 1 0.0 26.321137 19.57761 9.784
302 1 1 0.0 27.574525 21.7529 9.784
303 1 1 0.0 28.827913 23.92819 9.784
304 1 1 0.0 28.827913 19.57761 9.784
305 1 1 0.0 20.0542 23.203093 9.784
306 1 1 0.0 21.307588 25.378383 9.784
307 1 1 0.0 20.0542 18.852513 9.784
308 1 1 0.0 21.307588 21.027803 9.784
309 1 1 0.0 22.560975 23.203093 9.784
310 1 1 0.0 23.814363 25.378383 9.784
311 1 1 0.0 22.560975 18.852513 9.784
312 1 1 0.0 23.814363 21.027803 9.784
313 1 1 0.0 25.06775 23.203093 9.784
314 1 1 0.0 26.321137 25.378383 9.784
315 1 1 0.0 25.06775 18.852513 9.784
316 1 1 0.0 26.321137 21.027803 9.784
317 1 1 0.0 27.574525 23.203093 9.784
318 1 1 0.0 28.827913 25.378383 9.784
319 1 1 0.0 27.574525 18.852513 9.784
320 1 1 0.0 28.827913 21.027803 9.784
321 1 1 0.0 10.0271 26.10348 9.784
322 1 1 0.0 10.0271 21.7529 9.784
323 1 1 0.0 11.280487 23.92819 9.784
324 1 1 0.0 12.533875 26.10348 9.784
325 1 1 0.0 11.280487 19.57761 9.784
326 1 1 0.0 12.533875 21.7529 9.784
327 1 1 0.0 13.787263 23.92819 9.784
328 1 1 0.0 15.04065 26.10348 9.784
329 1 1 0.0 13.787263 19.57761 9.784
330 1 1 0.0 15.04065 21.7529 9.784
331 1 1 0.0 16.294038 23.92819 9.784
332 1 1 0.0 17.547425 26.10348 9.784
333 1 1 0.0 16.294038 19.57761 9.784
334 1 1 0.0 17.547425 21.7529 9.784
335 1 1 0.0 18.800812 23.92819 9.784
336 1 1 0.0 18.800812 19.57761 9.784
337 1 1 0.0 10.0271 23.203093 9.784
338 1 1 0.0 11.280487 25.378383 9.784
339 1 1 0.0 10.0271 18.852513 9.784
340 1 1 0.0 11.280487 21.027803 9.784
341 1 1 0.0 12.533875 23.203093 9.784
342 1 1 0.0 13.787263 25.378383 9.784
343 1 1 0.0 12.533875 18.852513 9.784
344 1 1 0.0 13.787263 21.027803 9.784
345 1 1 0.0 15.04065 23.203093 9.784
346 1 1 0.0 16.294038 25.378383 9.784
347 1 1 0.0 15.04065 18.852513 9.784
348 1 1 0.0 16.294038 21.027803 9.784
349 1 1 0.0 17.547425 23.203093 9.784
350 1 1 0.0 18.800812 25.378383 9.784
351 1 1 0.0 17.547425 18.852513 9.784
352 1 1 0.0 18.800812 21.027803 9.784
353 1 1 0.0 0.0 26.10348 9.784
354 1 1 0.0 0.0 21.7529 9.784
355 1 1 0.0 1.253388 23.92819 9.784
356 1 1 0.0 2.506775 26.10348 9.784
357 1 1 0.0 1.253388 19.57761 9.784
358 1 1 0.0 2.506775 21.7529 9.784
359 1 1 0.0 3.760162 23.92819 9.784
360 1 1 0.0 5.01355 26.10348 9.784
361 1 1 0.0 3.760162 19.57761 9.784
362 1 1 0.0 5.01355 21.7529 9.784
363 1 1 0.0 6.266938 23.92819 9.784
364 1 1 0.0 7.520325 26.10348 9.784
365 1 1 0.0 6.266938 19.57761 9.784
366 1 1 0.0 7.520325 21.7529 9.784
367 1 1 0.0 8.773713 23.92819 9.784
368 1 1 0.0 8.773713 19.57761 9.784
369 1 1 0.0 0.0 23.203093 9.784
370 1 1 0.0 1.253388 25.378383 9.784
371 1 1 0.0 0.0 18.852513 9.784
372 1 1 0.0 1.253388 21.027803 9.784
373 1 1 0.0 2.506775 23.203093 9.784
374 1 1 0.0 3.760162 25.378383 9.784
375 1 1 0.0 2.506775 18.852513 9.784
376 1 1 0.0 3.760162 21.027803 9.784
377 1 1 0.0 5.01355 23.203093 9.784
378 1 1 0.0 6.266938 25.378383 9.784
379 1 1 0.0 5.01355 18.852513 9.784
380 1 1 0.0 6.266938 21.027803 9.784
381 1 1 0.0 7.520325 23.203093 9.784
382 1 1 0.0 8.773713 25.378383 9.784
383 1 1 0.0 7.520325 18.852513 9.784
384 1 1 0.0 8.773713 21.027803 9.784
385 1 1 0.0 30.0813 34.80464 9.784
386 1 1 0.0 30.0813 30.45406 9.784
387 1 1 0.0 31.334688 32.62935 9.784
388 1 1 0.0 32.588075 34.80464 9.784
389 1 1 0.0 31.334688 28.27877 9.784
390 1 1 0.0 32.588075 30.45406 9.784
391 1 1 0.0 33.841462 32.62935 9.784
392 1 1 0.0 35.09485 34.80464 9.784
393 1 1 0.0 33.841462 28.27877 9.784
394 1 1 0.0 35.09485 30.45406 9.784
395 1 1 0.0 36.348238 32.62935 9.784
396 1 1 0.0 37.601625 34.80464 9.784
397 1 1 0.0 36.348238 28.27877 9.784
398 1 1 0.0 37.601625 30.45406 9.784
399 1 1 0.0 38.855013 32.62935 9.784
400 1 1 0.0 38.855013 28.27877 9.784
401 1 1 0.0 30.0813 31.904253 9.784
402 1 1 0.0 31.334688 34.079543 9.784
403 1 1 0.0 30.0813 27.553673 9.784
404 1 1 0.0 31.334688 29.728963 9.784
405 1 1 0.0 32.588075 31.904253 9.784
406 1 1 0.0 33.841462 34.079543 9.784
407 1 1 0.0 32.588075 27.553673 9.784
408 1 1 0.0 33.841462 29.728963 9.784
409 1 1 0.0 35.09485 31.904253 9.784
410 1 1 0.0 36.348238 34.079543 9.784
411 1 1 0.0 35.09485 27.553673 9.784
412 1 1 0.0 36.348238 29.728963 9.784
413 1 1 0.0 37.601625 31.904253 9.784
414 1 1 0.0 38.855013 34.079543 9.784
415 1 1 0.0 37.601625 27.553673 9.784
416 1 1 0.0 38.855013 29.728963 9.784
417 1 1 0.0 20.0542 34.80464 9.784
418 1 1 0.0 20.0542 30.45406 9.784
419 1 1 0.0 21.307588 32.62935 9.784
420 1 1 0.0 22.560975 34.80464 9.784
421 1 1 0.0 21.307588 28.27877 9.784
422 1 1 0.0 22.560975 30.45406 9.784
423 1 1 0.0 23.814363 32.62935 9.784
424 1 1 0.0 25.06775 34.80464 9.784
425 1 1 0.0 23.814363 28.27877 9.784
426 1 1 0.0 25.06775 30.45406 9.784
427 1 1 0.0 26.321137 32.62935 9.784
428 1 1 0.0 27.574525 34.80464 9.784
429 1 1 0.0 26.321137 28.27877 9.784
430 1 1 0.0 27.574525 30.45406 9.784
431 1 1 0.0 28.827913 32.62935 9.784
432 1 1 0.0 28.827913 28.27877 9.784
433 1 1 0.0 20.0542 31.904253 9.784
434 1 1 0.0 21.307588 34.079543 9.784
435 1 1 0.0 20.0542 27.553673 9.784
436 1 1 0.0 21.307588 29.728963 9.784
437 1 1 0.0 22.560975 31.904253 9.784
438 1 1 0.0 23.814363 34.079543 9.784
439 1 1 0.0 22.560975 27.553673 9.784
440 1 1 0.0 23.814363 29.728963 9.784
441 1 1 0.0 25.06775 31.904253 9.784
442 1 1 0.0 26.321137 34.079543 9.784
443 1 1 0.0 25.06775 27.553673 9.784
444 1 1 0.0 26.321137 29.728963 9.784
445 1 1 0.0 27.574525 31.904253 9.784
446 1 1 0.0 28.827913 34.079543 9.784
447 1 1 0.0 27.574525 27.553673 9.784
448 1 1 0.0 28.827913 29.728963 9.784
449 1 1 0.0 10.0271 34.80464 9.784
450 1 1 0.0 10.0271 30.45406 9.784
451 1 1 0.0 11.280487 32.62935 9.784
452 1 1 0.0 12.533875 34.80464 9.784
453 1 1 0.0 11.280487 28.27877 9.784
454 1 1 0.0 12.533875 30.45406 9.784
455 1 1 0.0 13.787263 32.62935 9.784
456 1 1 0.0 15.04065 34.80464 9.784
457 1 1 0.0 13.787263 28.27877 9.784
458 1 1 0.0 15.04065 30.45406 9.784
459 1 1 0.0 16.294038 32.62935 9.784
460 1 1 0.0 17.547425 34.80464 9.784
461 1 1 0.0 16.294038 28.27877 9.784
462 1 1 0.0 17.547425 30.45406 9.784
463 1 1 0.0 18.800812 32.62935 9.784
464 1 1 0.0 18.800812 28.27877 9.784
465 1 1 0.0 10.0271 31.904253 9.784
466 1 1 0.0 11.280487 34.079543 9.784
467 1 1 0.0 10.0271 27.553673 9.784
468 1 1 0.0 11.280487 29.728963 9.784
469 1 1 0.0 12.533875 31.904253 9.784
470 1 1 0.0 13.787263 34.079543 9.784
471 1 1 0.0 12.533875 27.553673 9.784
472 1 1 0.0 13.787263 29.728963 9.784
473 1 1 0.0 15.04065 31.904253 9.784
474 1 1 0.0 16.294038 34.079543 9.784
475 1 1 0.0 15.04065 27.553673 9.784
476 1 1 0.0 16.294038 29.728963 9.784
477 1 1 0.0 17.547425 31.904253 9.784
478 1 1 0.0 18.800812 34.079543 9.784
479 1 1 0.0 17.547425 27.553673 9.784
480 1 1 0.0 18.800812 29.728963 9.784
481 1 1 0.0 0.0 34.80464 9.784
482 1 1 0.0 0.0 30.45406 9.784
483 1 1 0.0 1.253388 32.62935 9.784
484 1 1 0.0 2.506775 34.80464 9.784
485 1 1 0.0 1.253388 28.27877 9.784
486 1 1 0.0 2.506775 30.45406 9.784
487 1 1 0.0 3.760162 32.62935 9.784
488 1 1 0.0 5.01355 34.80464 9.784
489 1 1 0.0 3.760162 28.27877 9.784
490 1 1 0.0 5.01355 30.45406 9.784
491 1 1 0.0 6.266938 32.62935 9.784
492 1 1 0.0 7.520325 34.80464 9.784
493 1 1 0.0 6.266938 28.27877 9.784
494 1 1 0.0 7.520325 30.45406 9.784
495 1 1 0.0 8.773713 32.62935 9.784
496 1 1 0.0 8.773713 28.27877 9.784
497 1 1 0.0 0.0 31.904253 9.784
498 1 1 0.0 1.253388 34.079543 9.784
499 1 1 0.0 0.0 27.553673 9.784
500 1 1 0.0 1.253388 29.728963 9.784
501 1 1 0.0 2.506775 31.904253 9.784
502 1 1 0.0 3.760162 34.079543 9.784
503 1 1 0.0 2.506775 27.553673 9.784
504 1 1 0.0 3.760162 29.728963 9.784
505 1 1 0.0 5.01355 31.904253 9.784
506 1 1 0.0 6.266938 34.079543 9.784
507 1 1 0.0 5.01355 27.553673 9.784
508 1 1 0.0 6.266938 29.728963 9.784
509 1 1 0.0 7.520325 31.904253 9.784
510 1 1 0.0 8.773713 34.079543 9.784
511 1 1 0.0 7.520325 27.553673 9.784
512 1 1 0.0 8.773713 29.728963 9.784
1817 1 1 0.0 30.0813 8.70116 23.116855
1818 1 1 0.0 30.0813 4.35058 23.116855
1819 1 1 0.0 31.334688 6.52587 23.116855
1820 1 1 0.0 32.588075 8.70116 23.116855
1821 1 1 0.0 31.334688 2.17529 23.116855
1822 1 1 0.0 32.588075 4.35058 23.116855
1823 1 1 0.0 33.841462 6.52587 23.116855
1824 1 1 0.0 35.09485 8.70116 23.116855
1825 1 1 0.0 33.841462 2.17529 23.116855
1826 1 1 0.0 35.09485 4.35058 23.116855
1827 1 1 0.0 36.348238 6.52587 23.116855
1828 1 1 0.0 37.601625 8.70116 23.116855
1829 1 1 0.0 36.348238 2.17529 23.116855
1830 1 1 0.0 37.601625 4.35058 23.116855
1831 1 1 0.0 38.855013 6.52587 23.116855
1832 1 1 0.0 38.855013 2.17529 23.116855
1833 1 1 0.0 30.0813 5.800773 23.116855
1834 1 1 0.0 31.334688 7.976063 23.116855
1835 1 1 0.0 30.0813 1.450193 23.116855
1836 1 1 0.0 31.334688 3.625483 23.116855
1837 1 1 0.0 32.588075 5.800773 23.116855
1838 1 1 0.0 33.841462 7.976063 23.116855
1839 1 1 0.0 32.588075 1.450193 23.116855
1840 1 1 0.0 33.841462 3.625483 23.116855
1841 1 1 0.0 35.09485 5.800773 23.116855
1842 1 1 0.0 36.348238 7.976063 23.116855
1843 1 1 0.0 35.09485 1.450193 23.116855
1844 1 1 0.0 36.348238 3.625483 23.116855
1845 1 1 0.0 37.601625 5.800773 23.116855
1846 1 1 0.0 38.855013 7.976063 23.116855
1847 1 1 0.0 37.601625 1.450193 23.116855
1848 1 1 0.0 38.855013 3.625483 23.116855
1849 1 1 0.0 20.0542 8.70116 23.116855
1850 1 1 0.0 20.0542 4.35058 23.116855
1851 1 1 0.0 21.307588 6.52587 23.116855
1852 1 1 0.0 22.560975 8.70116 23.116855
1853 1 1 0.0 21.307588 2.17529 23.116855
1854 1 1 0.0 22.560975 4.35058 23.116855
1855 1 1 0.0 23.814363 6.52587 23.116855
1856 1 1 0.0 25.06775 8.70116 23.116855
1857 1 1 0.0 23.814363 2.17529 23.116855
1858 1 1 0.0 25.06775 4.35058 23.116855
1859 1 1 0.0 26.321137 6.52587 23.116855
1860 1 1 0.0 27.574525 8.70116 23.116855
1861 1 1 0.0 26.321137 2.17529 23.116855
1862 1 1 0.0 27.574525 4.35058 23.116855
1863 1 1 0.0 28.827913 6.52587 23.116855
1864 1 1 0.0 28.827913 2.17529 23.116855
1865 1 1 0.0 20.0542 5.800773 23.116855
1866 1 1 0.0 21.307588 7.976063 23.116855
1867 1 1 0.0 20.0542 1.450193 23.116855
1868 1 1 0.0 21.307588 3.625483 23.116855
1869 1 1 0.0 22.560975 5.800773 23.116855
1870 1 1 0.0 23.814363 7.976063 23.116855
1871 1 1 0.0 22.560975 1.450193 23.116855
1872 1 1 0.0 23.814363 3.625483 23.116855
1873 1 1 0.0 25.06775 5.800773 23.116855
1874 1 1 0.0 26.321137 7.976063 23.116855
1875 1 1 0.0 25.06775 1.450193 23.116855
1876 1 1 0.0 26.321137 3.625483 23.116855
1877 1 1 0.0 27.574525 5.800773 23.116855
1878 1 1 0.0 28.827913 7.976063 23.116855
1879 1 1 0.0 27.574525 1.450193 23.116855
1880 1 1 0.0 28.827913 3.625483 23.116855
1881 1 1 0.0 10.0271 8.70116 23.116855
1882 1 1 0.0 10.0271 4.35058 23.116855
1883 1 1 0.0 11.280487 6.52587 23.116855
1884 1 1 0.0 12.533875 8.70116 23.116855
1885 1 1 0.0 11.280487 2.17529 23.116855
1886 1 1 0.0 12.533875 4.35058 23.116855
1887 1 1 0.0 13.787263 6.52587 23.116855
1888 1 1 0.0 15.04065 8.70116 23.116855
1889 1 1 0.0 13.787263 2.17529 23.116855
1890 1 1 0.0 15.04065 4.35058 23.116855
1891 1 1 0.0 16.294038 6.52587 23.116855
1892 1 1 0.0 17.547425 8.70116 23.116855
1893 1 1 0.0 16.294038 2.17529 23.116855
1894 1 1 0.0 17.547425 4.35058 23.116855
1895 1 1 0.0 18.800812 6.52587 23.116855
1896 1 1 0.0 18.800812 2.17529 23.116855
1897 1 1 0.0 10.0271 5.800773 23.116855
1898 1 1 0.0 11.280487 7.976063 23.116855
1899 1 1 0.0 10.0271 1.450193 23.116855
1900 1 1 0.0 11.280487 3.625483 23.116855
1901 1 1 0.0 12.533875 5.800773 23.116855
1902 1 1 0.0 13.787263 7.976063 23.116855
1903 1 1 0.0 12.533875 1.450193 23.116855
1904 1 1 0.0 13.787263 3.625483 23.116855
1905 1 1 0.0 15.04065 5.800773 23.116855
1906 1 1 0.0 16.294038 7.976063 23.116855
1907 1 1 0.0 15.04065 1.450193 23.116855
1908 1 1 0.0 16.294038 3.625483 23.116855
1909 1 1 0.0 17.547425 5.800773 23.116855
1910 1 1 0.0 18.800812 7.976063 23.116855
1911 1 1 0.0 17.547425 1.450193 23.116855
1912 1 1 0.0 18.800812 3.625483 23.116855
1913 1 1 0.0 0.0 8.70116 23.116855
1914 1 1 0.0 0.0 4.35058 23.116855
1915 1 1 0.0 1.253388 6.52587 23.116855
1916 1 1 0.0 2.506775 8.70116 23.116855
1917 1 1 0.0 1.253388 2.17529 23.116855
1918 1 1 0.0 2.506775 4.35058 23.116855
1919 1 1 0.0 3.760162 6.52587 23.116855
1920 1 1 0.0 5.01355 8.70116 23.116855
1921 1 1 0.0 3.760162 2.17529 23.116855
1922 1 1 0.0 5.01355 4.35058 23.116855
1923 1 1 0.0 6.266938 6.52587 23.116855
1924 1 1 0.0 7.520325 8.70116 23.116855
1925 1 1 0.0 6.266938 2.17529 23.116855
1926 1 1 0.0 7.520325 4.35058 23.116855
1927 1 1 0.0 8.773713 6.52587 23.116855
1928 1 1 0.0 8.773713 2.17529 23.116855
1929 1 1 0.0 0.0 5.800773 23.116855
1930 1 1 0.0 1.253388 7.976063 23.116855
1931 1 1 0.0 0.0 1.450193 23.116855
1932 1 1 0.0 1.253388 3.625483 23.116855
1933 1 1 0.0 2.506775 5.800773 23.116855
1934 1 1 0.0 3.760162 7.976063 23.116855
1935 1 1 0.0 2.506775 1.450193 23.116855
1936 1 1 0.0 3.760162 3.625483 23.116855
1937 1 1 0.0 5.01355 5.800773 23.116855
1938 1 1 0.0 6.266938 7.976063 23.116855
1939 1 1 0.0 5.01355 1.450193 23.116855
1940 1 1 0.0 6.266938 3.625483 23.116855
1941 1 1 0.0 7.520325 5.800773 23.116855
1942 1 1 0.0 8.773713 7.976063 23.116855
1943 1 1 0.0 7.520325 1.450193 23.116855
1944 1 1 0.0 8.773713 3.625483 23.116855
1945 1 1 0.0 30.0813 17.40232 23.116855
1946 1 1 0.0 30.0813 13.05174 23.116855
1947 1 1 0.0 31.334688 15.22703 23.116855
1948 1 1 0.0 32.588075 17.40232 23.116855
1949 1 1 0.0 31.334688 10.87645 23.116855
1950 1 1 0.0 32.588075 13.05174 23.116855
1951 1 1 0.0 33.841462 15.22703 23.116855
1952 1 1 0.0 35.09485 17.40232 23.116855
1953 1 1 0.0 33.841462 10.87645 23.116855
1954 1 1 0.0 35.09485 13.05174 23.116855
1955 1 1 0.0 36.348238 15.22703 23.116855
1956 1 1 0.0 37.601625 17.40232 23.116855
1957 1 1 0.0 36.348238 10.87645 23.116855
1958 1 1 0.0 37.601625 13.05174 23.116855
1959 1 1 0.0 38.855013 15.22703 23.116855
1960 1 1 0.0 38.855013 10.87645 23.116855
1961 1 1 0.0 30.0813 14.501933 23.116855
1962 1 1 0.0 31.334688 16.677223 23.116855
1963 1 1 0.0 30.0813 10.151353 23.116855
1964 1 1 0.0 31.334688 12.326643 23.116855
1965 1 1 0.0 32.588075 14.501933 23.116855
1966 1 1 0.0 33.841462 16.677223 23.116855
1967 1 1 0.0 32.588075 10.151353 23.116855
1968 1 1 0.0 33.841462 12.326643 23.116855
1969 1 1 0.0 35.09485 14.501933 23.116855
1970 1 1 0.0 36.348238 16.677223 23.116855
1971 1 1 0.0 35.09485 10.151353 23.116855
1972 1 1 0.0 36.348238 12.326643 23.116855
1973 1 1 0.0 37.601625 14.501933 23.116855
1974 1 1 0.0 38.855013 16.677223 23.116855
1975 1 1 0.0 37.601625 10.151353 23.116855
1976 1 1 0.0 38.855013 12.326643 23.116855
1977 1 1 0.0 20.0542 17.40232 23.116855
1978 1 1 0.0 20.0542 13.05174 23.116855
1979 1 1 0.0 21.307588 15.22703 23.116855
1980 1 1 0.0 22.560975 17.40232 23.116855
1981 1 1 0.0 21.307588 10.87645 23.116855
1982 1 1 0.0 22.560975 13.05174 23.116855
1983 1 1 0.0 23.814363 15.22703 23.116855
1984 1 1 0.0 25.06775 17.40232 23.116855
1985 1 1 0.0 23.814363 10.87645 23.116855
1986 1 1 0.0 25.06775 13.05174 23.116855
1987 1 1 0.0 26.321137 15.22703 23.116855
1988 1 1 0.0 27.574525 17.40232 23.116855
1989 1 1 0.0 26.321137 10.87645 23.116855
1990 1 1 0.0 27.574525 13.05174 23.116855
1991 1 1 0.0 28.827913 15.22703 23.116855
1992 1 1 0.0 28.827913 10.87645 23.116855
1993 1 1 0.0 20.0542 14.501933 23.116855
1994 1 1 0.0 21.307588 16.677223 23.116855
1995 1 1 0.0 20.0542 10.151353 23.116855
1996 1 1 0.0 21.307588 12.326643 23.116855
1997 1 1 0.0 22.560975 14.501933 23.116855
1998 1 1 0.0 23.814363 16.677223 23.116855
1999 1 1 0.0 22.560975 10.151353 23.116855
2000 1 1 0.0 23.814363 12.326643 23.116855
2001 1 1 0.0 25.06775 14.501933 23.116855
2002 1 1 0.0 26.321137 16.677223 23.116855
2003 1 1 0.0 25.06775 10.151353 23.116855
2004 1 1 0.0 26.321137 12.326643 23.116855
2005 1 1 0.0 27.574525 14.501933 23.116855
2006 1 1 0.0 28.827913 16.677223 23.116855
2007 1 1 0.0 27.574525 10.151353 23.116855
2008 1 1 0.0 28.827913 12.326643 23.116855
2009 1 1 0.0 10.0271 17.40232 23.116855
2010 1 1 0.0 10.0271 13.05174 23.116855
2011 1 1 0.0 11.280487 15.22703 23.116855
2012 1 1 0.0 12.533875 17.40232 23.116855
2013 1 1 0.0 11.280487 10.87645 23.116855
2014 1 1 0.0 12.533875 13.05174 23.116855
2015 1 1 0.0 13.787263 15.22703 23.116855
2016 1 1 0.0 15.04065 17.40232 23.116855
2017 1 1 0.0 13.787263 10.87645 23.116855
2018 1 1 0.0 15.04065 13.05174 23.116855
2019 1 1 0.0 16.294038 15.22703 23.116855
2020 1 1 0.0 17.547425 17.40232 23.116855
2021 1 1 0.0 16.294038 10.87645 23.116855
2022 1 1 0.0 17.547425 13.05174 23.116855
2023 1 1 0.0 18.800812 15.22703 23.116855
2024 1 1 0.0 18.800812 10.87645 23.116855
2025 1 1 0.0 10.0271 14.501933 23.116855
2026 1 1 0.0 11.280487 16.677223 23.116855
2027 1 1 0.0 10.0271 10.151353 23.116855
2028 1 1 0.0 11.280487 12.326643 23.116855
2029 1 1 0.0 12.533875 14.501933 23.116855
2030 1 1 0.0 13.787263 16.677223 23.116855
2031 1 1 0.0 12.533875 10.151353 23.116855
2032 1 1 0.0 13.787263 12.326643 23.116855
2033 1 1 0.0 15.04065 14.501933 23.116855
2034 1 1 0.0 16.294038 16.677223 23.116855
2035 1 1 0.0 15.04065 10.151353 23.116855
2036 1 1 0.0 16.294038 12.326643 23.116855
2037 1 1 0.0 17.547425 14.501933 23.116855
2038 1 1 0.0 18.800812 16.677223 23.116855
2039 1 1 0.0 17.547425 10.151353 23.116855
2040 1 1 0.0 18.800812 12.326643 23.116855
2041 1 1 0.0 0.0 17.40232 23.116855
2042 1 1 0.0 0.0 13.05174 23.116855
2043 1 1 0.0 1.253388 15.22703 23.116855
2044 1 1 0.0 2.506775 17.40232 23.116855
2045 1 1 0.0 1.253388 10.87645 23.116855
2046 1 1 0.0 2.506775 13.05174 23.116855
2047 1 1 0.0 3.760162 15.22703 23.116855
2048 1 1 0.0 5.01355 17.40232 23.116855
2049 1 1 0.0 3.760162 10.87645 23.116855
2050 1 1 0.0 5.01355 13.05174 23.116855
2051 1 1 0.0 6.266938 15.22703 23.116855
2052 1 1 0.0 7.520325 17.40232 23.116855
2053 1 1 0.0 6.266938 10.87645 23.116855
2054 1 1 0.0 7.520325 13.05174 23.116855
2055 1 1 0.0 8.773713 15.22703 23.116855
2056 1 1 0.0 8.773713 10.87645 23.116855
2057 1 1 0.0 0.0 14.501933 23.116855
2058 1 1 0.0 1.253388 16.677223 23.116855
2059 1 1 0.0 0.0 10.151353 23.116855
2060 1 1 0.0 1.253388 12.326643 23.116855
2061 1 1 0.0 2.506775 14.501933 23.116855
2062 1 1 0.0 3.760162 16.677223 23.116855
2063 1 1 0.0 2.506775 10.151353 23.116855
2064 1 1 0.0 3.760162 12.326643 23.116855
2065 1 1 0.0 5.01355 14.501933 23.116855
2066 1 1 0.0 6.266938 16.677223 23.116855
2067 1 1 0.0 5.01355 10.151353 23.116855
2068 1 1 0.0 6.266938 12.326643 23.116855
2069 1 1 0.0 7.520325 14.501933 23.116855